<?xml version="1.0"?>
<VTKFile type="UnstructuredGrid"  version="0.1"  >
<UnstructuredGrid>
<Piece  NumberOfPoints="1442" NumberOfCells="2689">
<Points>
<DataArray  type="Float64"  NumberOfComponents="3"  format="ascii">0 1.5 0  0 0 0  1 0 0  1 1.5 0  0.35 0.65 0  0.65 0.65 0  0.65 0.35 0  0.35 0.35 0  0.5866025403784438 1.25 0  0.6 1.2 0  0.5866025403784438 1.15 0  0.55 1.113397459621556 0  0.5 1.1 0  0.45 1.113397459621556 0  0.4133974596215561 1.15 0  0.4 1.2 0  0.4133974596215561 1.25 0  0.45 1.286602540378444 0  0.5 1.3 0  0.55 1.286602540378444 0  0.5 0 0  0 0.75 0  1 0.75 0  0.5 1.5 0  0 0.375 0  1 0.375 0  0 1.125 0  1 1.125 0  0.7720072424407859 0.9279927575592141 0  0.2369660147341462 0.9168810515695116 0  0.75 1.5 0  0.25 1.5 0  0.25 0 0  0.75 0 0  0.5 0.85 0  0 1.3125 0  1 1.3125 0  0 0.1875 0  1 0.1875 0  0.8151785714285714 0.5 0  0 0.5625 0  0.7912795060263956 1.294622674701861 0  0.2063122081232003 1.278693406660268 0  0.1825892857142857 0.46875 0  0.7939338235294118 0.2018382352941176 0  0.2060661764705882 0.2018382352941177 0  0.5 0.35 0  0.6048949210808516 0.1621878909653493 0  0.3951050789191484 0.1621878909653493 0  0 0.9375 0  1 0.5625 0  1 0.9375 0  0.8141972910020407 1.109596487353587 0  0.8300504758824617 0.6823233344113842 0  0.1858106595831645 0.7378373085410758 0  0.238295786310014 1.099198431588796 0  0.6580075260652187 0.8122556445489141 0  0.6163841821541198 0.967266913317176 0  0.125 1.5 0  0.35 0.5 0  0.65 0.5 0  0.5 0.65 0  0.8469874054402771 0.3478957913091444 0  0.3245383322568082 1.370320036919204 0  0.875 1.5 0  0.625 1.5 0  0.3893319639748608 0.9654366071334702 0  0.3223346093442226 0.7956602451451316 0  0.889714748531926 0.84375 0  0.125 0 0  0.875 0 0  0.1255889869382551 1.008856943713003 0  0.09944003484435231 0.84375 0  0.1382805521602539 0.3303643480715599 0  0.1366004694630674 0.6038634908658245 0  0.8990783052805509 1.214042471714644 0  0.668658096406439 1.365345830213541 0  0.1256028235987354 1.171715077169584 0  1 1.03125 0  0.8771001575862699 0.9992802925544542 0  0.375 1.5 0  0.375 0 0  0.625 0 0  0.6903369446057199 1.073113088240991 0  0.2508055501622219 0.5673522822942192 0  0.1875 1.397372561873074 0  0.7763483628448028 0.8097040473126911 0  0.7228926390269661 1.192219694772317 0  0.425 0.7397022019570473 0  0.502880832992453 0.9635283571381553 0  0.575 0.7350267602343212 0  0.4360607236286478 1.401581848014667 0  0 0.09375 0  0.117501592172302 0.120210456229736 0  0 1.40625 0  0.8895805301329724 1.374303686755315 0  1 0.09375 0  0.8932064825261059 0.140625 0  1 0.46875 0  0.7491117359292689 0.4068056351799293 0  0.7325892857142857 0.575 0  0.9077195128926427 0.2526498093370785 0  0.5535898384862248 1.4 0  0.2862335767983502 0.1135875300027696 0  0.6875 0.09008767814013303 0  0.425 0.2686897619023091 0  0.575 0.2686897619023091 0  0.2473344065696833 0.3057417823420628 0  0.7453015779946386 0.2985879063046734 0  0.5 0.1150143090901798 0  0.7685591996099543 1.396893159654718 0  0.3101877663965869 1.26674953462598 0  0.1077951867849426 1.323907731025259 0  1 0.65625 0  0.8891650081440881 0.5857332208147272 0  0.1007677805315621 0.2272256552865915 0  0.7968715917092577 0.09549815361541228 0  0.3261120109539702 0.2390008113368489 0  0 0.46875 0  0.09140542126065337 0.4216592458712581 0  0.35 0.425 0  0.7311434567761511 0.7156357995802678 0  0.2919618505553527 1.007643466945126 0  0.08983837159042833 0.6970644256489388 0  0.6682645595483953 0.237422322813065 0  0.8998020018038841 0.4383187780156251 0  0.3181107827910294 1.151262931136927 0  0.3720333480364825 1.058947728854826 0  0 1.21875 0  0.1003609880062736 0.5161452023746008 0  0 0.28125 0  1 0.28125 0  1 1.21875 0  0 0.65625 0  0 0.84375 0  0 1.03125 0  1 0.84375 0  1 1.40625 0  0.9093009528131841 1.090733220877184 0  0.7860227258733221 1.02043933632054 0  0.2307441467224153 0.8218289487513623 0  0.2528411345438668 0.6657600013847179 0  0.4084926922343957 0.8315748448273622 0  0.9202166509295927 0.703125 0  0.3291025750926692 0.8910969320761761 0  0.2156003274906323 1.187751415797996 0  0.7014659962158134 1.28056544327123 0  0.2003567957464576 0.07840869841509678 0  0.8104055170896122 1.207813336544415 0  0.09876309307291065 1.413676816133377 0  0.2077866146074518 0.3843959659369329 0  0.2665605884847265 0.4478926490851416 0  0.8511945383881471 0.7662478318744792 0  0.08439847728796501 1.090289510633832 0  0.5 0.2101535921113944 0  0.4197556514239601 0.07679209038960186 0  0.5625 0 0  0.59375 0.0784662732531748 0  0.08714495587406729 0.9303213966261739 0  0.7036417274683815 0.9850594824934642 0  0.6755320268986503 0.9000552383136148 0  0.5860738747831671 0.8809615541428588 0  0.2088643337429009 1.020440832220938 0  0.7325892857142857 0.4885336903971964 0  0.4471147131617949 1.024481429651863 0  0.9313289977941566 0.5146846620677518 0  0.9180219872311914 1.295577203732315 0  0.557548036763429 1.02868260590063 0  0.4451604117585401 0.9081923089371269 0  0.654058422565956 0.7332765200871801 0  0.7006786775708823 1.437898431814794 0  0.8093088642695168 0.6032446443778432 0  0.9237739500172332 0.06517639997702245 0  0.0625 0 0  0.9375 1.5 0  0.916328826652307 0.9241852991743037 0  0.171873989501834 0.8734121241734827 0  0.9285477532453221 0.3329160394873349 0  0.8313221886708546 0.2709216822179099 0  0.739498116874331 0.1471237652498467 0  0.1620375184655173 1.082817874707448 0  0.8242493456480263 0.4235545458621132 0  0.08092324714630188 1.24362538269709 0  0.3937094327312218 1.338112874304002 0  0.4996428508906701 0.7259062340301533 0  0.575 0.35 0  0.65 0.575 0  0.65 0.425 0  0.425 0.35 0  0.575 0.65 0  0.425 0.65 0  0.35 0.575 0  0.2634457364051707 1.421466625293684 0  0.2456683338177991 1.345762439477909 0  0.2639893318360002 0.7433347689534138 0  0.3507285030897302 0.725595745012912 0  0.8125 1.5 0  0.8370966351013709 1.428601215583214 0  0.1159182816951397 0.7690143386662499 0  0.07268341085386848 0.295831542634192 0  0.5632433583437957 0.8093064345680889 0  0.2799069474529262 0.3713889743612331 0  0.06036875067228691 0.609375 0  0.6171745445061244 1.082825455493875 0  0.1649291821849979 0.2622806563448759 0  0.9448573742659629 0.796875 0  0.819878068142786 0.8705255731026844 0  0.1754166553402996 0.9557718819026461 0  0.3125 0 0  0.3456514073649527 0.06854302435898529 0  0.179013816916958 0.6643092150062141 0  0.1685024487938309 0.5393386310926891 0  0.6629601924713451 1.144598607844157 0  0.598818411646755 1.341812641225657 0  0.6280839083339949 1.42659529326364 0  0.8467953663565162 0.9356556797149647 0  0.7209953524450999 0.6452061385343574 0  0.4942305993535075 0.2800767960556972 0  0.3061584457706445 1.082375355492541 0  0.3685543739956368 1.427850231385615 0  0.05227396747452195 0.794166041256576 0  0.3125 1.5 0  0.9496457419399936 0.984375 0  0.04954054144752973 1.359375 0  0.6737459127500345 0.1685001996464485 0  0.06628889425102936 0.1670183213191904 0  0.7179318144233049 0.8459436723546736 0  0.858285790039315 1.160480191818246 0  0.936808362524298 1.155092021473656 0  0.8548602347007285 1.267284087448593 0  0.9334213203093593 1.429572546872906 0  0.7313228343711509 1.340857410425121 0  0.05405463371455387 1.171875 0  0.1503883748403896 1.236950319791893 0  0.463653656573043 0.7940666406854493 0  0.05801660590855892 0.9932572163232567 0  0.09375 0.05838980176088906 0  0.3263950934941324 0.169863961403198 0  0.934725376680476 0.6364845845163584 0  0.0625 1.5 0  0.7156357623587829 0.7798871936803032 0  0.53125 0.05750715454508989 0  0.7289531798358591 0.2120513939389277 0  0.8611293008453803 0.08371275956016357 0  0.7931485975328414 0.7362462304195524 0  0.6632452451477077 1.224524506211694 0  0.6506492327121354 1.022084357310594 0  0.7430305338519925 1.12271278939875 0  0.2972167782079263 0.6125 0  0.08140105122587579 0.3588411210502321 0  0.8413482178663922 1.051986218878298 0  0.8441204858756779 1.329910317324504 0  0.9492429838281583 1.35135714298749 0  0.1714358186485003 0.7995424813790447 0  0.2598323266513226 0.2406306847305864 0  0.9375 0 0  0.6875 1.5 0  0.4375 0 0  0.1875 0 0  0.8125 0 0  0.6875 0 0  0.5625 1.5 0  0.4375 1.5 0  0.1875 1.5 0  0.8576207303520328 0.2120296334907739 0  0.2627640498257702 0.1728052841079521 0  0.1800607144524293 0.1411943334622621 0  0.2542163078251953 1.237640660837701 0  0.7591619624360891 1.242034861729323 0  0.04972001742217615 0.8808474296926768 0  0.3267792715450906 0.9545477668504242 0  0.1531104911380159 0.4140040574183872 0  0.1997848571381072 0.6046315752437972 0  0.2360802435888449 0.5046414722270375 0  0.2872149514161052 0.8461091037879988 0  0.1504082636827923 1.445128669770467 0  0.1851815538777085 1.336174488747262 0  0.4943755093475578 1.367373509401215 0  0.4964151309383568 1.433719520515024 0  0.3029991463633179 0.5375 0  0.6374699876673086 1.289950970400623 0  0.28125 0.05260436823277936 0  0.9412742001334101 0.3930080174094802 0  0.1908821188700928 1.134231497075342 0  0.3861268729108649 0.9064648318748592 0  0.5284333082565327 0.9060792218313511 0  0.8750375567166919 0.4932333314793089 0  0.1477326199654788 0.1909551566321114 0  0.3792612549576647 0.7779443610493932 0  0.9342249539166885 0.1922634780484449 0  1 0.140625 0  0.8302507856821559 0.1496309130576249 0  1 0.890625 0  0.9434043801182344 0.8706060349325631 0  0.3382096980264135 1.210656910306839 0  0.5622796583217582 0.2076725143819285 0  0.4583381614272422 0.1625839506007871 0  0.7721118865761186 0.6737867768191619 0  0.5582040803351463 0.1258007114404073 0  0.3000177205020042 0.6985687306279778 0  0 0.234375 0  0.8826713453770464 0.6600511600481319 0  0.7136112836337428 0.35387960538117 0  0.7959066994371263 0.3737904431053162 0  0.6338891054010829 0.2896157183928816 0  0.3499583098309357 1.006508473320714 0  0.9425268362234692 1.042505681182754 0  0.4461145717627564 0.9649688264828293 0  0.5594284226858414 0.9715936951847909 0  0.3104960594866802 0.3004315453087643 0  0.3670693837847625 0.2821125354429394 0  0.6136294557714667 0.693509645088642 0  0.6116178576521086 0.778892695
[...]
<PointData  Vectors="f_106"> 
<DataArray  type="Float64"  Name="f_106"  NumberOfComponents="3" format="ascii">-4.2198190156832141e-02 2.1028073272615796e-02 0.0000000000000000e+00  -2.9909820346137668e-04 -1.2003526228538028e-04 0.0000000000000000e+00  -3.7265733232389787e-04 5.5359484926483524e-04 0.0000000000000000e+00  -9.4075090626551616e-02 -1.3260640904227336e-01 0.0000000000000000e+00  6.4555299512660524e-01 -1.0145150117293014e+00 0.0000000000000000e+00  -6.3922858283146267e-01 -8.9824290369762605e-01 0.0000000000000000e+00  -2.1015872924528337e-02 1.0120080249860329e-02 0.0000000000000000e+00  2.0989166741376322e-02 9.5417100419367719e-03 0.0000000000000000e+00  5.4747394715673545e+00 3.1637598352986895e+00 0.0000000000000000e+00  5.5996373397137642e+00 -2.6122889136015803e-01 0.0000000000000000e+00  4.7960695907024391e+00 -2.6636262955808165e+00 0.0000000000000000e+00  2.9521707654974767e+00 -4.5488663288068896e+00 0.0000000000000000e+00  -5.4579488210801184e-02 -5.3972071939479598e+00 0.0000000000000000e+00  -3.0169923917128361e+00 -4.6419046475062116e+00 0.0000000000000000e+00  -4.8280888411873262e+00 -2.9887228867579814e+00 0.0000000000000000e+00  -5.7741094061647029e+00 2.5158383776925325e-01 0.0000000000000000e+00  -5.8277140519423840e+00 3.1586192781777429e+00 0.0000000000000000e+00  -3.2967811141154200e+00 6.0671724576836263e+00 0.0000000000000000e+00  -1.0158582537987346e-01 7.4396202423634961e+00 0.0000000000000000e+00  3.3633875339926762e+00 6.2604767319302459e+00 0.0000000000000000e+00  6.8604281334104526e-06 -1.9380482884928591e-03 0.0000000000000000e+00  -4.8200587033789105e-01 -2.0220955941139904e-03 0.0000000000000000e+00  4.8385734575204437e-01 -1.0466807945819164e-02 0.0000000000000000e+00  -1.8165656795030665e-02 3.8750173085906456e+00 0.0000000000000000e+00  -3.3727408099414304e-02 -7.9780654372491305e-04 0.0000000000000000e+00  3.1202801763691466e-02 8.8360787728743043e-04 0.0000000000000000e+00  -1.4034266395828445e+00 1.8171842234833784e-03 0.0000000000000000e+00  1.3992362737929138e+00 9.5288918985633984e-03 0.0000000000000000e+00  1.0338194222178239e+00 -8.1172787474647534e-01 0.0000000000000000e+00  -9.4614117277993182e-01 -8.5333588778909597e-01 0.0000000000000000e+00  -1.1827048990655632e-02 1.9586918652325256e+00 0.0000000000000000e+00  -3.1407330502818437e-02 1.9492793526744649e+00 0.0000000000000000e+00  3.6077996880189325e-05 -3.4077948300690690e-03 0.0000000000000000e+00  3.3588892746729085e-05 -3.4566181664788141e-03 0.0000000000000000e+00  -1.1035735521594455e-02 -1.6380614317763436e+00 0.0000000000000000e+00  -1.0313947788088766e+00 -1.3876833589541301e-02 0.0000000000000000e+00  1.0551184909792288e+00 1.2171177681150587e-02 0.0000000000000000e+00  -6.6654833156918414e-03 -1.6427345381197917e-04 0.0000000000000000e+00  6.9108663287784757e-03 7.1504025155691222e-05 0.0000000000000000e+00  4.0055306645449575e-03 -1.0291748901422106e-01 0.0000000000000000e+00  -1.4302154962363697e-01 1.3191433707084805e-03 0.0000000000000000e+00  1.7265264617393123e+00 9.4186386156768909e-01 0.0000000000000000e+00  -1.7551483213302590e+00 8.0558462637283235e-01 0.0000000000000000e+00  -5.4787784638421857e-04 -7.4068714758456736e-02 0.0000000000000000e+00  -4.0234414190197499e-04 -7.5030038975476675e-03 0.0000000000000000e+00  1.2551712219325458e-04 -7.0566963027190524e-03 0.0000000000000000e+00  -4.3073080532471336e-05 2.8989823094585803e-03 0.0000000000000000e+00  -1.7633674627618990e-03 -1.6583599835762704e-03 0.0000000000000000e+00  1.6628985445819003e-03 -1.5313786134013531e-03 0.0000000000000000e+00  -1.0154424677715053e+00 -1.2319985344269766e-02 0.0000000000000000e+00  1.4105464321968400e-01 1.2579964362309845e-04 0.0000000000000000e+00  1.0090699820379243e+00 3.0171485604350776e-03 0.0000000000000000e+00  1.8198763831754083e+00 -2.6439066818075163e-01 0.0000000000000000e+00  2.0460469258645872e-01 -3.6575584741880268e-01 0.0000000000000000e+00  -3.3903050113432948e-01 -5.0224239721423136e-01 0.0000000000000000e+00  -1.9955268373716559e+00 -4.8501982211461170e-01 0.0000000000000000e+00  3.6666477049765744e-01 -1.1523825493010700e+00 0.0000000000000000e+00  1.0234508974884982e+00 -1.9108757515758412e+00 0.0000000000000000e+00  2.5852843548890860e-02 9.0799364376959324e-01 0.0000000000000000e+00  1.1582115492859026e-01 -2.9266250222736460e-03 0.0000000000000000e+00  -1.1151242005877278e-01 -2.2719859267834148e-04 0.0000000000000000e+00  1.9386439954981856e-05 -1.3350059348820784e+00 0.0000000000000000e+00  6.8547250758929064e-03 -2.4204902890215433e-02 0.0000000000000000e+00  -1.5266722009618094e+00 2.5544332749197385e+00 0.0000000000000000e+00  2.9376890406749536e-02 8.0029721980465662e-01 0.0000000000000000e+00  -2.2046210281827699e-01 3.2070981203467408e+00 0.0000000000000000e+00  -9.3240544288920857e-01 -1.9151213945423398e+00 0.0000000000000000e+00  -3.0037378180559576e-01 -1.0637844033373927e+00 0.0000000000000000e+00  7.2044863671193826e-01 -3.5812609104872745e-01 0.0000000000000000e+00  3.0035726227866950e-04 -2.6139369288087750e-03 0.0000000000000000e+00  8.4641887669630283e-05 -2.7186065210449482e-03 0.0000000000000000e+00  -1.3203342084613703e+00 -3.6220605150144358e-01 0.0000000000000000e+00  -7.2582937629123412e-01 -3.0259172306322046e-01 0.0000000000000000e+00  -8.3378500851210968e-03 -1.8883399706002935e-02 0.0000000000000000e+00  -1.1949957915597179e-01 -1.9545304474588782e-01 0.0000000000000000e+00  1.4901948939572398e+00 1.8087050966444587e-01 0.0000000000000000e+00  1.7322164999373173e+00 2.6737838921311741e+00 0.0000000000000000e+00  -1.6089733119065868e+00 7.4186857280640783e-02 0.0000000000000000e+00  1.2765010311532485e+00 6.9573363205901817e-03 0.0000000000000000e+00  1.2694137048995484e+00 -3.3234586807495570e-01 0.0000000000000000e+00  -1.1799171020031322e-04 3.0844002455401727e+00 0.0000000000000000e+00  6.5044785344716541e-05 -2.4904838894430174e-03 0.0000000000000000e+00  -6.8678278875978093e-06 -2.4883579765147042e-03 0.0000000000000000e+00  2.1867179575920002e+00 -1.1778328499719968e+00 0.0000000000000000e+00  1.0086746068610605e-01 -1.9967013098339975e-01 0.0000000000000000e+00  -8.0932714422399654e-01 1.2190056755120207e+00 0.0000000000000000e+00  5.1712739069144198e-01 -7.1738789438079886e-01 0.0000000000000000e+00  2.7520940352135006e+00 1.8629560930700720e-01 0.0000000000000000e+00  -6.2145509033999645e-02 -1.3272740686866529e+00 0.0000000000000000e+00  3.5509660798929525e-02 -2.3911051594747308e+00 0.0000000000000000e+00  6.5599570740578456e-02 -1.3230745694777697e+00 0.0000000000000000e+00  -8.3279542767897419e-01 4.0677548871715228e+00 0.0000000000000000e+00  -2.8070780176777479e-03 -6.1239484690401151e-05 0.0000000000000000e+00  -1.9811896972337806e-03 -3.6745649919945013e-03 0.0000000000000000e+00  -5.9795980750749156e-01 -9.5400182657288460e-03 0.0000000000000000e+00  8.4797569937997352e-01 5.7660570771954167e-01 0.0000000000000000e+00  2.2942114678592847e-03 -2.0424334583904122e-04 0.0000000000000000e+00  2.8871191497472819e-03 -3.9505971796316083e-03 0.0000000000000000e+00  7.1836561171196592e-02 -3.0611008123091057e-04 0.0000000000000000e+00  -2.7864657355726005e-02 -3.5988461777860949e-02 0.0000000000000000e+00  -1.2530397161631157e-01 -2.1946246874541572e-01 0.0000000000000000e+00  7.9351575120432238e-03 -7.8899007347763075e-03 0.0000000000000000e+00  7.6053338098979417e-01 4.1997665334047252e+00 0.0000000000000000e+00  1.1339647384038590e-03 -3.5814359361144251e-03 0.0000000000000000e+00  -9.1119167763038453e-04 -3.1389204903600849e-03 0.0000000000000000e+00  2.0463193127035588e-03 1.9230232419135814e-03 0.0000000000000000e+00  -2.0522207248060936e-03 1.8883813037080667e-03 0.0000000000000000e+00  1.0563432220428338e-02 -1.3849639250963485e-02 0.0000000000000000e+00  -9.1282600654492771e-03 -1.2394346051280420e-02 0.0000000000000000e+00  5.9527074244365201e-05 -1.3539615152008755e-03 0.0000000000000000e+00  9.6453407499603538e-01 1.5253708970783844e+00 0.0000000000000000e+00  -2.9997773293879026e+00 1.4294023154256708e+00 0.0000000000000000e+00  -1.1101234468046499e+00 4.7193803702259629e-01 0.0000000000000000e+00  2.9574242699657372e-01 4.3611880244398341e-03 0.0000000000000000e+00  1.3126256749631776e-01 -1.4590980213920823e-01 0.0000000000000000e+00  -5.9347158278355468e-03 -7.1357253450496892e-03 0.0000000000000000e+00  2.6437432403710715e-04 -4.2162742366200169e-03 0.0000000000000000e+00  5.7051849906620067e-03 -2.9391403597907907e-03 0.0000000000000000e+00  -6.8646556817144169e-02 -1.6703203564604203e-03 0.0000000000000000e+00  -3.3685048475485278e-02 -3.2045447065912683e-02 0.0000000000000000e+00  5.6662505857397648e-02 -6.8708655764480062e-04 0.0000000000000000e+00  1.1862495608872754e-01 -7.1528876369929573e-01 0.0000000000000000e+00  -1.5584402686376697e+00 -1.2575811872144920e+00 0.0000000000000000e+00  -3.4078372050064754e-01 -2.1438598492077846e-01 0.0000000000000000e+00  -5.4827618049452711e-03 -2.5396055037627246e-03 0.0000000000000000e+00  3.7660437231960706e-02 -4.2661496638902625e-02 0.0000000000000000e+00  -2.9714530247178335e+00 -6.3977885738580087e-01 0.0000000000000000e+00  -2.2192785095000187e+00 -2.1085915029404005e+00 0.0000000000000000e+00  -1.3313986525761441e+00 -7.7212386348395768e-03 0.0000000000000000e+00  -7.6849029413881192e-02 -8.6976762115914014e-02 0.0000000000000000e+00  -1.5414338991323284e-02 5.1933150497169471e-04 0.0000000000000000e+00  1.4820932083168783e-02 1.0132316978565161e-04 0.0000000000000000e+00  1.3342230830048396e+00 -3.1051821607858580e-02 0.0000000000000000e+00  -2.8358447680705473e-01 1.4187805573308621e-03 0.0000000000000000e+00  -7.3862260331315599e-01 -1.8655270639720528e-02 0.0000000000000000e+00  -1.2745655856368445e+00 -1.0519273029861919e-03 0.0000000000000000e+00  7.3275417048345259e-01 -1.3546406459352546e-02 0.0000000000000000e+00  5.8225349539535320e-01 1.8203374144048778e-03 0.0000000000000000e+00  1.4654282535704033e+00 -1.2995393300445596e-01 0.0000000000000000e+00  1.5011041482192908e+00 -6.8116592527209152e-01 0.0000000000000000e+00  -5.4572090474769985e-01 -7.5233315734592232e-01 0.0000000000000000e+00  -8.4038586627802302e-03 -4.9782806788599432e-01 0.0000000000000000e+00  -2.6832929162070163e-01 -1.4645610222549847e+00 0.0000000000000000e+00  3.4531314882548364e-01 -1.6817631655250506e-01 0.0000000000000000e+00  -7.2769686985954607e-01 -1.2871919220764492e+00 0.0000000000000000e+00  -2.0818491097776031e+00 1.9732878362655651e-01 0.0000000000000000e+00  2.5788316677615866e+00 1.6486793123200920e+00 0.0000000000000000e+00  -2.7992461859483521e-04 -3.7220461801261090e-03 0.0000000000000000e+00  1.8370469186644161e+00 2.9276765634458624e-01 0.0000000000000000e+00  -5.8851269768320724e-01 5.7596008110287666e-01 0.0000000000000000e+00  1.0927866520048015e-02 -3.4643543226129454e-02 0.0000000000000000e+00  4.9249734473338878e-02 -5.0902755800791226e-02 0.0000000000000000e+00  4.5352409007560512e-01 -4.2318273842347021e-01 0.0000000000000000e+00  -1.4388810156130138e+00 -1.0796422205465350e-01 0.0000000000000000e+00  -3.0754954760840677e-05 3.0039321001117006e-04 0.0000000000000000e+00  5.5939048258926423e-04 -2.0301774024371775e-03 0.0000000000000000e+00  -3.4704013417588678e-06 -2.0954653534163009e-03 0.0000000000000000e+00  -5.6868278302111533e-04 -2.0991406438569875e-03 0.0000000000000000e+00  -1.0336799873571443e+00 -2.6823884716316504e-01 0.0000000000000000e+00  1.3821624844155591e+00 -1.2335847639560897e+00 0.0000000000000000e+00  7.6153809000050432e-01 -1.2706688193527185e+00 0.0000000000000000e+00  3.9129435586595884e-01 -1.6254410650375022e+00 0.0000000000000000e+00  -1.4583371362691497e+00 -6.6811305790596831e-01 0.0000000000000000e+00  -7.1445952555162243e-02 -8.0770161026271520e-02 0.0000000000000000e+00  -8.7446428799712750e-01 -2.9066595333249570e+00 0.0000000000000000e+00  9.4951749808246430e-02 -5.2980288457616938e-02 0.0000000000000000e+00  1.2088880268295918e+00 3.3057634661949181e-01 0.0000000000000000e+00  1.1729612344721627e+00 -3.0028254803221732e+00 0.0000000000000000e+00  -3.1403222905723399e-01 -1.8371782478063923e+00 0.0000000000000000e+00  6.9416209684447200e-02 -1.1038415612281922e+00 0.0000000000000000e+00  6.3770637512950412e-01 2.4208674505582768e+00 0.0000000000000000e+00  5.4928223846714502e-02 -2.3825881656287529e-01 0.0000000000000000e+00  1.3459422519862786e-03 -2.0475583471792702e-03 0.0000000000000000e+00  -2.0102113379865270e-04 -1.3916888354400755e-03 0.0000000000000000e+00  5.1892173018764635e-02 4.2159640813988936e-01 0.0000000000000000e+00  1.0147573962362033e+00 -2.5176118421817312e-01 0.0000000000000000e+00  -8.0067127761698942e-01 -5.5834298531210969e-01 0.0000000000000000e+00  1.9237271834875030e-02 -1.2519278694018955e-02 0.0000000000000000e+00  1.7850879418785767e-03 -1.3138787106950538e-02 0.0000000000000000e+00  -1.2545710223762076e-03 -4.5719090148558621e-03 0.0000000000000000e+00  -1.6207202209941092e+00 -3.4340611400438759e-01 0.0000000000000000e+00  4.6184500419461285e-03 -5.1663537474319690e-02 0.0000000000000000e+00  -1.3748522172631397e+00 2.2863019246786753e-01 0.0000000000000000e+00  -2.0836552051882022e+00 3.8586788239561756e+00 0.0000000000000000e+00  2.5113330475432681e-03 -1.3652887246792722e+00 0.0000000000000000e+00  1.0811842090874965e-04 4.9357269262470509e-03 0.0000000000000000e+00  -2.8721946265064291e-01 -1.4943532450852311e-02 0.0000000000000000e+00  -6.5225936162535941e-02 1.7482633539123730e-03 0.0000000000000000e+00  2.1333868956598595e-04 4.5560378844747163e-03 0.0000000000000000e+00  -1.8719623738872276e-03 -1.3159628623139215e+00 0.0000000000000000e+00  1.4748422198168248e-02 -1.3041060218391318e+00 0.0000000000000000e+00  2.7771176259012703e-01 -1.1540221931059825e-02 0.0000000000000000e+00  -8.5877016755950919e-01 1.8967088169238340e+00 0.0000000000000000e+00  -1.4756640667359600e+00 1.5223489824942902e+00 0.0000000000000000e+00  -2.2573519457250690e-01 -7.7892900355362471e-01 0.0000000000000000e+00  -5.5286540694185600e-02 -1.1267927452722604e+00 0.0000000000000000e+00  -6.1647396490366074e-02 1.2958267001182457e+00 0.0000000000000000e+00  5.7780885577204655e-01 1.0394768846110194e+00 0.0000000000000000e+00  -5.0272358181681498e-01 -3.1775728248030766e-01 0.0000000000000000e+00  -1.3523347840930075e-02 -1.0296409314450866e-02 0.0000000000000000e+00  1.5862905553883089e-01 -1.4333358697455278e+00 0.0000000000000000e+00  2.8442045026923886e-02 -2.0241881134915953e-02 0.0000000000000000e+00  -1.8956402033299521e-01 -8.7228237170771147e-02 0.0000000000000000e+00  2.5668218141736503e+00 -2.3898185540609704e+00 0.0000000000000000e+00  -3.0435633143730298e-03 -1.1563033198015398e-02 0.0000000000000000e+00  6.0469540749621253e-01 -1.5069130611522555e-01 0.0000000000000000e+00  8.0271580378752527e-01 -6.0985696306005621e-01 0.0000000000000000e+00  -1.1413666566671807e+00 -5.7772579167328642e-01 0.0000000000000000e+00  -6.7395220774700538e-05 -2.9979974495432820e-03 0.0000000000000000e+00  6.3139399493788008e-04 -2.7490881710325538e-03 0.0000000000000000e+00  -1.5999829472677801e-01 -3.4897878512910713e-01 0.0000000000000000e+00  -2.9097137754663945e-02 -1.3516692581258677e-01 0.0000000000000000e+00  3.3779721057274061e+00 -8.4605036018818991e-01 0.0000000000000000e+00  2.1784778484839142e+00 3.9175901996612637e+00 0.0000000000000000e+00  8.0889220472837653e-01 3.2061933209805642e+00 0.0000000000000000e+00  1.0675141640912813e+00 -4.9755136036151815e-01 0.0000000000000000e+00  -1.9098826790345219e-01 -4.8362510322750818e-01 0.0000000000000000e+00  7.5210617880105472e-05 1.9751168420100371e-03 0.0000000000000000e+00  -2.3100065869982407e+00 -1.1760029806043026e+00 0.0000000000000000e+00  -7.9897464286148012e-01 3.1989371391688119e+00 0.0000000000000000e+00  -6.0427800762383921e-01 -1.5432987691066624e-01 0.0000000000000000e+00  1.5631601042987564e-01 2.6870177471713439e+00 0.0000000000000000e+00  1.1717914921828936e+00 -1.3725963583135956e-01 0.0000000000000000e+00  -8.5458641144646941e-01 2.5843673070527712e-01 0.0000000000000000e+00  -2.3758146392855663e-03 -3.2304886835738959e-03 0.0000000000000000e+00  -4.4939604723681827e-03 -3.4260717962987354e-03 0.0000000000000000e+00  6.0654915140172105e-01 -1.0016517634237190e+00 0.0000000000000000e+00  1.6718968357136188e+00 4.2308003720211797e-02 0.0000000000000000e+00  1.4563951346473734e+00 1.0022894143141153e-02 0.0000000000000000e+00  1.4906642119263660e+00 4.5729541387604494e-01 0.0000000000000000e+00  4.6347123280639280e-01 4.2039969196662902e-01 0.0000000000000000e+00  1.7752481339579753e+00 1.7587436698619330e+00 0.0000000000000000e+00  -1.4381671675975765e+00 3.2675855343282101e-02 0.0000000000000000e+00  -1.6351801856148394e+00 3.4409199377802047e-01 0.0000000000000000e+00  -7.6557198445270730e-02 -1.4536505553396439e+00 0.0000000000000000e+00  -1.1965507876476968e+00 -1.5723840084899390e-01 0.0000000000000000e+00  -1.1947697172797294e-03 -2.4180952884563212e-03 0.0000000000000000e+00  2.4301141946158947e-03 -3.0121104138891735e-03 0.0000000000000000e+00  2.2474124012042671e-01 -1.0055658115324000e-01 0.0000000000000000e+00  1.0177794981008464e-01 3.2193377060635137e-01 0.0000000000000000e+00  3.1905588395905232e-01 -9.1815101662146648e-01 0.0000000000000000e+00  -1.6928958732505769e-04 -1.8719182468942557e-03 0.0000000000000000e+00  -3.4376904569358617e-03 -5.4392152996120538e-03 0.0000000000000000e+00  1.1066008011105543e-03 -3.4183675248659943e-03 0.0000000000000000e+00  3.0260087234571154e-01 -5.5013441897942306e-01 0.0000000000000000e+00  3.6999602982695818e+00 8.1654287091981770e-01 0.0000000000000000e+00  1.5997883960673334e+00 -1.7902870792558763e+00 0.0000000000000000e+00  2.2808665199550000e+00 -4.5676050737995322e-01 0.0000000000000000e+00  2.8904162089356406e-01 -3.0456385482992265e-01 0.0000000000000000e+00  -2.1587261560585665e-02 -1.8835291496498343e-02 0.0000000000000000e+00  1.5092396565940243e+00 -3.7313804270618123e-01 0.0000000000000000e+00  1.2389926167232346e+00 7.5422923433335476e-01 0.0000000000000000e+00  8.6415507777916978e-01 2.6365946316799910e-01 0.0000000000000000e+00  -5.3247874159518604e-01 -5.1694568348776804e-01 0.0000000000000000e+00  4.5166143875553537e-03 -6.8128530716182302e-03 0.0000000000000000e+00  2.7938551887801144e-05 -1.3911475542280724e-03 0.0000000000000000e+00  -1.7445171331193934e-01 2.4483539062070845e+00 0.0000000000000000e+00  5.0259146053123698e-05 -2.1274925455087436e-03 0.0000000000000000e+00  5.4113512943933546e-06 -3.3052976393803538e-03 0.0000000000000000e+00  7.0063150987254285e-05 -3.2777803451920283e-03 0.0000000000000000e+00  -2.0055524902765723e-05 -2.9919221379335298e-03 0.0000000000000000e+00  9.9655545508112934e-04 3.7732762384847578e+00 0.0000000000000000e+00  -2.1730581941529038e-02 3.7341336841870376e+00 0.0000000000000000e+00  3.7247117531608372e-02 1.3005108572612094e+00 0.0000000000000000e+00  3.4066087754630581e-03 -7.5959115110642182e-03 0.0000000000000000e+00  2.0190603913801592e-03 -4.7454397186322125e-03 0.0000000000000000e+00  -7.4370712711174488e-04 -4.8535181236189521e-03 0.0000000000000000e+00  -2.4158373478813422e+00 6.8604158987700647e-01 0.0000000000000000e+00  2.1816769558315436e+00 8.1603908374918444e-01 0.0000000000000000e+00  -8.5574555202893432e-01 -1.4219681240490881e-01 0.0000000000000000e+00  -1.1235333042781617e+00 -1.4253289171936203e+00 0.0000000000000000e+00  -1.1946142837572105e-02 -4.3240537403049062e-02 0.0000000000000000e+00  -1.3984745615946929e-02 -2.5797667791024648e-01 0.0000000000000000e+00  4.9529958063982693e-02 -1.0897044789369453e-01 0.0000000000000000e+00  -6.1006351248147039e-01 -1.0233280362029191e+00 0.0000000000000000e+00  -3.9335517725439229e-01 9.8964868182846455e-01 0.0000000000000000e+00  -1.2704494182421489e+00 1.0567128623418767e+00 0.0000000000000000e+00  -2.1002163721759742e-01 5.0699563200037288e+00 0.0000000000000000e+00  -2.2923099309917771e-02 4.1089132820849779e+00 0.0000000000000000e+00  1.4557120730381037e-01 -1.03234875