<?xml version="1.0"?>
<VTKFile type="UnstructuredGrid"  version="0.1"  >
<UnstructuredGrid>
<Piece  NumberOfPoints="5584" NumberOfCells="10785">
<Points>
<DataArray  type="Float64"  NumberOfComponents="3"  format="ascii">0 1.5 0  0 0 0  1 0 0  1 1.5 0  0.35 0.65 0  0.65 0.65 0  0.65 0.35 0  0.35 0.35 0  0.5968583161128631 1.224868988716485 0  0.6 1.2 0  0.5968583161128631 1.175131011283514 0  0.5876306680043863 1.151824632589828 0  0.5728968627421411 1.131545289407131 0  0.5535826794978996 1.115567207449798 0  0.5309016994374948 1.104894348370485 0  0.5062790519529313 1.100197327157173 0  0.4812618685414276 1.101771274927131 0  0.4574220708434928 1.109517294753398 0  0.436257601025131 1.122948675722421 0  0.4190983005625052 1.141221474770753 0  0.4070223514111748 1.163187544731532 0  0.4007885298685522 1.18746667664357 0  0.4007885298685522 1.21253332335643 0  0.4070223514111749 1.236812455268468 0  0.4190983005625052 1.258778525229247 0  0.436257601025131 1.277051324277579 0  0.4574220708434927 1.290482705246602 0  0.4812618685414276 1.298228725072869 0  0.5062790519529313 1.299802672842827 0  0.5309016994374948 1.295105651629515 0  0.5535826794978996 1.284432792550201 0  0.5728968627421411 1.268454710592869 0  0.5876306680043863 1.248175367410171 0  0.5 0 0  0.5 1.5 0  0 0.75 0  1 0.75 0  0 0.375 0  1 0.375 0  0 1.125 0  1 1.125 0  0.2364431626261654 0.9150510691915791 0  0.7635359158896152 0.9151242943863466 0  0.75 1.5 0  0.25 1.5 0  0.25 0 0  0.75 0 0  0.4784599497470843 0.8576307053159276 0  0 1.3125 0  1 1.3125 0  0 0.1875 0  1 0.1875 0  0.8151785714285714 0.5 0  0 0.5625 0  0.8049841825030156 1.2385284622115 0  0.2037719235931248 1.276058442736962 0  0.1825892857142857 0.46875 0  0.7939338235294118 0.2018382352941176 0  0.2060661764705882 0.2018382352941177 0  0.5 0.35 0  0.6048949210808516 0.1621878909653493 0  0.3951050789191484 0.1621878909653493 0  1 0.5625 0  1 0.9375 0  0 0.9375 0  0.8300504758824617 0.6823233344113842 0  0.1853775764381173 0.7363215175334108 0  0.2373657759194461 1.09711662946253 0  0.8374351371878859 1.070011329380144 0  0.875 1.5 0  0.125 1.5 0  0.6062042178008371 0.9597305931201837 0  0.625590571903992 0.8045101662315939 0  0.35 0.5 0  0.5 0.65 0  0.65 0.5 0  0.8469874054402771 0.3478957913091444 0  0.375 1.5 0  0.3787535231798475 0.9761249510089064 0  0.625 1.5 0  0.7018167422048079 1.353350655050184 0  0.125 0 0  0.875 0 0  0.8734283952807402 0.8206195856544944 0  0.3207274586184861 0.7943099821949678 0  0.125852356274071 1.006646603510477 0  0.3125 1.370355983993781 0  0.1001109813395758 0.84375 0  0.8361527859043789 1.370292305154549 0  0.1382805521602539 0.3303643480715599 0  0.1361745501195396 0.6030339622396202 0  0.6976642487515485 1.065518809512825 0  0 1.21875 0  0.1254577894064276 1.168731749028377 0  0.375 0 0  0.625 0 0  0.7510140097352347 0.7894182637236186 0  0.8790452297356347 0.9550856501780677 0  0.1155816828226797 1.370862211451547 0  0.2507810137401653 0.5674837274123802 0  0.425 0.7403372498932393 0  0.4342557579616577 1.402339971385472 0  0.4926856620014251 0.9707967391297243 0  0.5902938770522754 1.391884256109841 0  0.8947278994479594 1.168427133233751 0  0 0.09375 0  0.117501592172302 0.120210456229736 0  1 0.09375 0  0.8932064825261059 0.140625 0  1 0.46875 0  0.7491117359292689 0.4068056351799293 0  0.7325892857142857 0.575 0  0.9077195128926427 0.2526498093370785 0  0.2862335767983502 0.1135875300027696 0  0.6875 0.09008767814013303 0  0.2876275375426245 1.199176877928066 0  0.425 0.2686897619023091 0  0.575 0.2686897619023091 0  0.2473344065696833 0.3057417823420628 0  0.5316453886109539 0.752574668986595 0  0.7453015779946386 0.2985879063046734 0  0.5 0.1150143090901798 0  1 1.40625 0  0.7013323955547213 1.225434196391494 0  0.9036798074538328 1.272382980180387 0  1 1.03125 0  1 0.65625 0  0.8891650081440881 0.5857332208147272 0  0.1007677805315621 0.2272256552865915 0  0.7968715917092577 0.09549815361541228 0  0.3261120109539702 0.2390008113368489 0  0 0.46875 0  0.09140542126065337 0.4216592458712581 0  0.35 0.425 0  0.7651164422570014 1.143468154563297 0  0.09472466320369284 1.26853663142193 0  0.08921587689551835 0.6960941425748194 0  0.2141236400534484 1.40281708845578 0  0.6682645595483953 0.237422322813065 0  0.8998020018038841 0.4383187780156251 0  0.3309306437258974 0.8912206104221932 0  0 0.28125 0  1 0.28125 0  0 0.65625 0  0 0.84375 0  0 1.03125 0  1 0.84375 0  0 1.40625 0  1 1.21875 0  0.339382516603148 1.073223882837075 0  0.286317207567006 0.9951759182622995 0  0.1006473955151142 0.5155906191247079 0  0.2531855684977951 0.6655018939994033 0  0.1938148195674164 0.8305707362095592 0  0.7348836338756599 0.694801913506495 0  0.9202166509295927 0.703125 0  0.2003567957464576 0.07840869841509678 0  0.6711458985020725 0.8890206767366003 0  0.6966131207025332 0.975435518234489 0  0.2077866146074518 0.3843959659369329 0  0.9244179047216532 1.359375 0  0.2665605884847265 0.4478926490851416 0  0.2902364272115729 1.286194351631958 0  0.08339241575003152 1.087586295501586 0  0.8015937827884826 0.9920390441018914 0  0.9252732102535306 1.078125 0  0.5 0.2101535921113944 0  0.4011776650759537 0.8220246829162232 0  0.4197556514239601 0.07679209038960186 0  0.5625 0 0  0.59375 0.0784662732531748 0  0.6875 1.5 0  0.7325892857142857 0.4920267325680271 0  0.204835680871921 1.193046767632362 0  0.08637007015464784 0.9294035406844091 0  0.5768760768787522 1.036630020704703 0  0.9314290531500782 0.890625 0  0.5683106907030949 0.8761770079449056 0  0.9313289977941566 0.5146846620677518 0  0.2053060218923775 0.9900170894042093 0  0.6752157373212424 1.146033498046018 0  0.8093088642695168 0.6032446443778432 0  0.575 0.65 0  0.6125 0.7232589482421361 0  0.5111121719842455 1.379761122853962 0  0.0625 0 0  0.9375 0 0  0.9375 1.5 0  0.0625 1.5 0  0.4111048225600165 0.9021509249006177 0  0.7623143099118797 1.41471375527577 0  0.9285477532453221 0.3329160394873349 0  0.8313221886708546 0.2709216822179099 0  0.6550346876206982 1.28956864569925 0  0.3718461865848758 1.320344441155674 0  0.4384030243440347 1.030840154672398 0  0.7459267962262177 1.289224489139695 0  0.739498116874331 0.1471237652498467 0  0.15994416688928 1.099378233153651 0  0.8242493456480263 0.4235545458621132 0  0.6837310563681893 0.7522056462208524 0  0.1593713391201386 0.9009459281285223 0  0.575 0.35 0  0.425 0.35 0  0.65 0.575 0  0.65 0.425 0  0.35 0.575 0  0.425 0.65 0  0.8877888478983736 1.425498582050861 0  0.1154686220942957 0.7683869154567289 0  0.927740984819444 0.07421434345370401 0  0.6636888337009441 1.423651905338443 0  0.3111176381890867 0.717236795593199 0  0.2699449164274207 0.8486490283800668 0  0.2538235200489132 0.7635161660860261 0  0.07268341085386848 0.295831542634192 0  0.2809346456198019 0.3756380899622044 0  0.06016708416056031 0.609375 0  0.1649291821849979 0.2622806563448759 0  0.8370719191227541 0.8894885899614881 0  0.8236216120582218 0.7602908797315113 0  0.9312970360380535 0.7756006047787171 0  0.3125 0 0  0.3456514073649527 0.06854302435898529 0  0.2789852006100069 1.434086156320743 0  0.3629868944608692 1.425904089962363 0  0.9317696005208419 1.005480200516477 0  0.1683911127111243 0.5390059746847954 0  0.1794577493844935 0.662781405933159 0  0.8125 1.5 0  0.6309227210903018 1.09029723761436 0  0.5625 1.5 0  0.4942305993535075 0.2800767960556972 0  0.7679690211037765 1.054718968911644 0  0.06970979214076235 1.427485138572825 0  0.240470326122646 1.336863484064373 0  0.05005549066978789 0.796875 0  0.2989222212362155 1.130208202029246 0  0.6737459127500345 0.1685001996464485 0  0.06628889425102936 0.1670183213191904 0  0.8390382472923372 1.300041379958112 0  0.05401127896696312 1.171875 0  0.6427040146773578 1.017693340474958 0  0.05779864542571933 0.9927197249867298 0  0.1498357829311211 1.230872814682862 0  0.8618649220619343 0.08214238637309584 0  0.09375 0.05838980176088906 0  0.8265218610406583 1.173605382038775 0  0.7820022533001192 0.8498081290429536 0  0.149793317731302 1.433279421988418 0  0.3263950934941324 0.169863961403198 0  0.9519733644606326 0.609375 0  0.53125 0.05750715454508989 0  0.53125 1.442255127775078 0  0.7289531798358591 0.2120513939389277 0  0.5108622032577443 1.034301592763787 0  0.06472987771920244 1.327938900389769 0  0.1731653006354684 1.336007864517053 0  0.2972650224186558 0.6125 0  0.5332004607667531 0.8193527264726512 0  0.4718056302720849 0.7898339058901962 0  0.6914972922139961 0.8235167360098176 0  0.08140105122587579 0.3588411210502321 0  0.3485736733566453 1.261371637767952 0  0.7661854106029202 1.350393584920444 0  0.8236846226501098 1.436009827398209 0  0.2598323266513226 0.2406306847305864 0  0.3125 1.5 0  0.4375 0 0  0.1875 0 0  0.8125 0 0  0.6875 0 0  0.4375 1.5 0  0.1875 1.5 0  0.8622855643385526 0.2015833648813345 0  0.8279152575258683 0.1495663913815799 0  0.2627640498257702 0.1728052841079521 0  0.1800607144524293 0.1411943334622621 0  0.8703699675038892 1.016940210063741 0  0.1531104911380159 0.4140040574183872 0  0.05005549066978791 0.8796488403725388 0  0.8850785900303794 0.6496168012286881 0  0.546629235950962 0.9363796584761916 0  0.6022430398015765 1.327804788323255 0  0.2360971875471279 0.504709688284624 0  0.1958628693609714 0.5929478639628611 0  0.3029466007669289 0.5375 0  0.7120149004037095 0.6353169502744931 0  0.28125 0.05260436823277936 0  0.9412742001334101 0.3930080174094802 0  0.1972681249417996 1.050771436715852 0  0.7779012740651824 0.6537420776419078 0  0.4723056998978993 1.447684302589501 0  0.3741601757160196 0.769828283787137 0  0.3723220811953492 0.707769671709656 0  0.4625 0.6951686249466197 0  0.8750375567166919 0.4932333314793089 0  0.1477326199654788 0.1909551566321114 0  0.3485723657661551 1.161119991775023 0  1 1.171875 0  0.936062194474129 1.217231089222022 0  0.9342249539166885 0.1922634780484449 0  1 0.140625 0  0.7271875340276345 0.8695792902604712 0  0.5622796583217582 0.2076725143819285 0  0.4377203416782418 0.2076725143819285 0  0.3832688090653011 0.2281554719838642 0  0.94241244
[...]
<PointData  Vectors="f_54"> 
<DataArray  type="Float64"  Name="f_54"  NumberOfComponents="3" format="ascii">-4.9672462319893113e-02 1.3268616330097360e-02 0.0000000000000000e+00  1.4230756429214284e-04 2.0459750220735480e-04 0.0000000000000000e+00  1.6819546229551494e-04 -6.2257755677839948e-05 0.0000000000000000e+00  -3.9108834453735669e-02 -5.9670981821630116e-02 0.0000000000000000e+00  8.2506502990874375e-01 -1.0812627438831766e+00 0.0000000000000000e+00  -8.1071668156097176e-01 -9.7684301718078459e-01 0.0000000000000000e+00  -2.4452700224111976e-02 1.3911450046403888e-02 0.0000000000000000e+00  2.4478892355658682e-02 1.5583245651929777e-02 0.0000000000000000e+00  6.1061094208412703e+00 1.4424527771632514e+00 0.0000000000000000e+00  6.0996424619852538e+00 -1.5583070235172042e-01 0.0000000000000000e+00  5.6103345558609901e+00 -1.3731589793934005e+00 0.0000000000000000e+00  4.9195260369768103e+00 -2.8014421799997651e+00 0.0000000000000000e+00  4.1790070647310813e+00 -3.6514248294881999e+00 0.0000000000000000e+00  2.9591311869621006e+00 -4.7649696410569922e+00 0.0000000000000000e+00  1.6493778397468721e+00 -5.1749028810158775e+00 0.0000000000000000e+00  2.5231525125508569e-01 -5.5728349667132564e+00 0.0000000000000000e+00  -1.1492971718300433e+00 -5.2148642234974192e+00 0.0000000000000000e+00  -2.3546698099084904e+00 -4.9242654162146788e+00 0.0000000000000000e+00  -3.4694803364315581e+00 -4.4321483601065239e+00 0.0000000000000000e+00  -4.6514665191907305e+00 -3.2522472692231674e+00 0.0000000000000000e+00  -5.2867716740222894e+00 -2.1466131692109585e+00 0.0000000000000000e+00  -5.8705324537245964e+00 -7.2608930254116011e-01 0.0000000000000000e+00  -6.1122915919145289e+00 6.7712445299803314e-01 0.0000000000000000e+00  -6.0005331909443251e+00 2.3741336659858678e+00 0.0000000000000000e+00  -5.5050362346596637e+00 4.0527061599805920e+00 0.0000000000000000e+00  -4.6125802505608169e+00 5.4595382916036428e+00 0.0000000000000000e+00  -3.2286821656872862e+00 6.8339839541348608e+00 0.0000000000000000e+00  -1.4694410221784635e+00 7.6740283377796654e+00 0.0000000000000000e+00  5.6101496916824400e-01 7.5609660096554592e+00 0.0000000000000000e+00  2.3118874573105690e+00 7.1233607026508308e+00 0.0000000000000000e+00  3.8825018266568505e+00 6.1407127686526586e+00 0.0000000000000000e+00  5.0040093717769185e+00 4.6543066766714993e+00 0.0000000000000000e+00  5.7755051142272684e+00 3.3541632066130385e+00 0.0000000000000000e+00  7.1075835526270974e-06 -2.0103363170151808e-03 0.0000000000000000e+00  6.9202599905782442e-03 3.9223670798742778e+00 0.0000000000000000e+00  -4.9254049339841388e-01 -9.2861420166210577e-04 0.0000000000000000e+00  4.9783515227691744e-01 -2.8398097957674008e-03 0.0000000000000000e+00  -3.3818223879896303e-02 5.3063069151617292e-04 0.0000000000000000e+00  3.3551628695015163e-02 -2.9712084972034335e-04 0.0000000000000000e+00  -1.4066287359522318e+00 -1.5788116399660108e-03 0.0000000000000000e+00  1.4090809577863996e+00 -9.2630628925881298e-04 0.0000000000000000e+00  -9.5643377061931323e-01 -8.5366891852632831e-01 0.0000000000000000e+00  9.7076603528263661e-01 -8.6023905025750802e-01 0.0000000000000000e+00  -8.2010372657281325e-02 1.9497818571065839e+00 0.0000000000000000e+00  -4.3376812181412622e-02 1.9305410753877730e+00 0.0000000000000000e+00  8.4393045304037102e-06 -3.4761209724807041e-03 0.0000000000000000e+00  1.4461765836291509e-05 -3.4638401155243415e-03 0.0000000000000000e+00  -9.9262289986275509e-02 -1.6572492515928621e+00 0.0000000000000000e+00  -1.0621131300216531e+00 3.4687475626294711e-03 0.0000000000000000e+00  1.0628210405941247e+00 -1.7475341308305233e-03 0.0000000000000000e+00  -6.7828667748453452e-03 -1.1667364664029848e-04 0.0000000000000000e+00  6.5482498573089468e-03 -1.4667447415786442e-05 0.0000000000000000e+00  6.3943940286478526e-03 -1.0467178335574301e-01 0.0000000000000000e+00  -1.5242797913754810e-01 3.0936469848525418e-03 0.0000000000000000e+00  1.8442177321578943e+00 5.1524339053273949e-01 0.0000000000000000e+00  -1.7305990512884222e+00 8.1198456992891910e-01 0.0000000000000000e+00  -2.2979739768691091e-03 -7.9284139759999553e-02 0.0000000000000000e+00  -4.0391186435761452e-04 -7.5185872577588171e-03 0.0000000000000000e+00  4.4293120916582721e-04 -7.3015699299586968e-03 0.0000000000000000e+00  -7.7625193346881921e-06 3.1131225949893836e-03 0.0000000000000000e+00  -1.7773524700341499e-03 -1.5611036294716852e-03 0.0000000000000000e+00  1.7675384345961166e-03 -1.6015148572881524e-03 0.0000000000000000e+00  1.4827002072370540e-01 -1.0941771039320166e-03 0.0000000000000000e+00  1.0290656654136900e+00 -7.0225411149532546e-03 0.0000000000000000e+00  -1.0435105727807912e+00 -9.2040424999079840e-05 0.0000000000000000e+00  2.0728113696770412e-01 -3.6181502085067913e-01 0.0000000000000000e+00  -3.4279454456159253e-01 -4.9617271709366961e-01 0.0000000000000000e+00  -2.0066938794658715e+00 -5.4230893861357610e-01 0.0000000000000000e+00  1.5919249446697104e+00 -3.4528452277734051e-01 0.0000000000000000e+00  -2.3810461813216017e-02 8.1849054164607338e-01 0.0000000000000000e+00  -2.4655235619634353e-03 7.9971170695553151e-01 0.0000000000000000e+00  8.9371864814360025e-01 -1.9122829755903057e+00 0.0000000000000000e+00  2.9180189384106475e-01 -1.2725880528729767e+00 0.0000000000000000e+00  1.2162589354742825e-01 -1.0516724693476263e-03 0.0000000000000000e+00  1.9547609322144598e-04 -1.3442417269705964e+00 0.0000000000000000e+00  -1.2338219359374129e-01 -7.6923594513802454e-04 0.0000000000000000e+00  6.6037575017382283e-03 -2.5259540746537967e-02 0.0000000000000000e+00  -1.5280067256187158e-02 3.1499212677927981e+00 0.0000000000000000e+00  -1.1153067651021331e+00 -1.8903217934421206e+00 0.0000000000000000e+00  -3.0802073437213098e-03 3.1652335093453021e+00 0.0000000000000000e+00  1.6923935088282394e+00 2.1879641395011933e+00 0.0000000000000000e+00  2.2274397577660156e-05 -2.6892687496557735e-03 0.0000000000000000e+00  -2.7516772402525802e-05 -2.7171746068528095e-03 0.0000000000000000e+00  6.6561285632921152e-01 -3.7077278975384237e-01 0.0000000000000000e+00  -3.3049174175325408e-01 -1.0867324310013879e+00 0.0000000000000000e+00  -1.3041339500460394e+00 -3.5020134650527102e-01 0.0000000000000000e+00  -1.4933175253199771e+00 2.3889886958915847e+00 0.0000000000000000e+00  -7.3389142745738856e-01 -3.1220227814980761e-01 0.0000000000000000e+00  1.0049684146570730e+00 9.6161037358300305e-01 0.0000000000000000e+00  -8.8746737309718209e-03 -2.1041687710481385e-02 0.0000000000000000e+00  -1.2683051362519490e-01 -1.9099036600409405e-01 0.0000000000000000e+00  2.0869641179801346e+00 -1.2001720120098025e+00 0.0000000000000000e+00  -1.3437274686741145e+00 -9.6608111590142066e-04 0.0000000000000000e+00  -1.6161411491305149e+00 6.5532263984024230e-02 0.0000000000000000e+00  1.4088418019696368e-06 -2.6098664376788152e-03 0.0000000000000000e+00  2.6044566565411120e-05 -2.5736803004383982e-03 0.0000000000000000e+00  4.3327461497602360e-01 -7.8024473334364741e-01 0.0000000000000000e+00  1.1154864704371328e+00 -3.6251277210683858e-01 0.0000000000000000e+00  -8.6505761055449548e-01 6.4155962163787594e-01 0.0000000000000000e+00  9.4446008143738533e-02 -1.9136293892688697e-01 0.0000000000000000e+00  -6.3256068144064828e-02 -1.3303108334810418e+00 0.0000000000000000e+00  -8.1661466377287339e-01 4.0693217002147897e+00 0.0000000000000000e+00  -1.0842637609116289e-01 -2.4764674213720599e+00 0.0000000000000000e+00  1.0938597239699328e+00 3.8337373221235267e+00 0.0000000000000000e+00  1.5561457738619608e+00 5.6498953339806139e-02 0.0000000000000000e+00  -2.6058880887792871e-03 1.3013109851357676e-04 0.0000000000000000e+00  -2.1286656018361153e-03 -3.7957165074195861e-03 0.0000000000000000e+00  2.5796999174668490e-03 -9.6686067218357212e-05 0.0000000000000000e+00  2.8371755431057409e-03 -3.8777823722107867e-03 0.0000000000000000e+00  7.0207530932947335e-02 8.2645429186686023e-04 0.0000000000000000e+00  -2.6263698164545074e-02 -3.6538751945904682e-02 0.0000000000000000e+00  -1.3988442137522195e-01 -2.0334015886637299e-01 0.0000000000000000e+00  8.5784017110837694e-03 -8.6819911109110911e-03 0.0000000000000000e+00  1.0262741981013849e-03 -3.7788856080270689e-03 0.0000000000000000e+00  -8.8354704948237104e-04 -3.2260520477089324e-03 0.0000000000000000e+00  -2.9411819014688136e+00 2.6215106599205756e-01 0.0000000000000000e+00  2.5234393650847668e-03 1.8946777854994172e-03 0.0000000000000000e+00  -2.5402305646903180e-03 1.8856903009197396e-03 0.0000000000000000e+00  8.8545165540017644e-03 -1.3692239863615053e-02 0.0000000000000000e+00  3.7865279376452697e-02 -1.3868115980314371e+00 0.0000000000000000e+00  -9.8797436943916673e-03 -1.2915341964168447e-02 0.0000000000000000e+00  -1.1196681241369933e-05 -1.4297362545603448e-03 0.0000000000000000e+00  5.8249258503260715e-01 9.9730980220256102e-03 0.0000000000000000e+00  3.0239463974206333e+00 7.3334347829577007e-01 0.0000000000000000e+00  1.3268248029225447e+00 3.3640906885073874e-01 0.0000000000000000e+00  1.2826103163214473e+00 -4.7770624188026231e-03 0.0000000000000000e+00  2.8999884727110486e-01 -6.5455788776976834e-04 0.0000000000000000e+00  1.3699422437819939e-01 -1.3844471843232017e-01 0.0000000000000000e+00  -6.2297614258200610e-03 -7.2638710117796301e-03 0.0000000000000000e+00  2.4462473404419916e-04 -4.1649831797865985e-03 0.0000000000000000e+00  5.9084457232699110e-03 -2.8160890027673011e-03 0.0000000000000000e+00  -7.2189498345296907e-02 7.4423922150133534e-04 0.0000000000000000e+00  -3.5445965718584826e-02 -3.3660444249741843e-02 0.0000000000000000e+00  5.9800725240000643e-02 4.6808852718909302e-04 0.0000000000000000e+00  2.1857802590843982e+00 -2.0857750881774623e-01 0.0000000000000000e+00  -1.3335656417458190e+00 3.1554566821410440e-01 0.0000000000000000e+00  -3.4094573627702174e-01 -1.9471503458401002e-01 0.0000000000000000e+00  -8.6027528336080927e-01 1.4473916154607762e+00 0.0000000000000000e+00  -5.4387755470713759e-03 -2.4910086063939367e-03 0.0000000000000000e+00  3.7190565458932172e-02 -4.3140194672883839e-02 0.0000000000000000e+00  -7.2541863039492960e-01 -1.2930573207248848e+00 0.0000000000000000e+00  -1.4736924330627925e-02 7.0332110920754125e-05 0.0000000000000000e+00  1.4892384284874223e-02 -4.8007866016175051e-04 0.0000000000000000e+00  -2.8941186957973952e-01 5.2857948834641381e-04 0.0000000000000000e+00  -7.5047756725785641e-01 -5.1508325622413636e-04 0.0000000000000000e+00  -1.2762389848534617e+00 2.6807574267987151e-03 0.0000000000000000e+00  7.6633969703052340e-01 2.5394685298876967e-03 0.0000000000000000e+00  -5.8931262638893778e-01 3.1344262042484442e-03 0.0000000000000000e+00  1.3429312539777043e+00 2.5590653086857650e-04 0.0000000000000000e+00  -2.3053551459999460e+00 -1.6371183339035322e+00 0.0000000000000000e+00  -1.4395319431669278e+00 -1.1567785594333739e+00 0.0000000000000000e+00  -7.7215046732394765e-02 -7.6072289999231268e-02 0.0000000000000000e+00  2.5684910330323475e-02 -5.1853300884045106e-01 0.0000000000000000e+00  -6.3733744216741073e-01 -6.1259534749663747e-01 0.0000000000000000e+00  2.9147657323436656e-02 -6.6506378094048135e-01 0.0000000000000000e+00  3.5978972268353704e-01 -1.8069230316116364e-01 0.0000000000000000e+00  -2.6124623146116856e-04 -3.9197201623389208e-03 0.0000000000000000e+00  7.1097485175415931e-01 -1.2986721879038114e+00 0.0000000000000000e+00  1.3010279676053651e+00 -1.2694272014850221e+00 0.0000000000000000e+00  8.8675993924904172e-03 -3.6364968182187173e-02 0.0000000000000000e+00  8.7054534055312660e-01 4.1087003735517258e-01 0.0000000000000000e+00  4.7659952063784053e-02 -4.8269384484693222e-02 0.0000000000000000e+00  -2.4064794426103515e+00 1.5549420716562397e+00 0.0000000000000000e+00  -1.4403607799396643e+00 -1.1224411259756155e-01 0.0000000000000000e+00  1.3448855916902100e+00 -6.3368380788657352e-01 0.0000000000000000e+00  1.4194030329983447e+00 -1.1317428009802612e-01 0.0000000000000000e+00  1.3876860615193944e-05 2.8880001408574643e-04 0.0000000000000000e+00  -2.7647051082769275e-01 -1.3974707072810031e+00 0.0000000000000000e+00  4.9233984726839678e-04 -2.0826902952130943e-03 0.0000000000000000e+00  1.1987699796059420e-05 -2.1757612449680138e-03 0.0000000000000000e+00  -6.4246205587194878e-04 -2.1730210837065823e-03 0.0000000000000000e+00  -7.8748227865926886e-03 2.5592458660078172e+00 0.0000000000000000e+00  -7.1050222710732053e-02 -8.0682516087636352e-02 0.0000000000000000e+00  -2.0398078525896550e+00 2.3189913573874363e-01 0.0000000000000000e+00  -1.0277100806582524e+00 -2.6932955344455295e-01 0.0000000000000000e+00  1.3909375578789009e+00 -2.8380264825365451e+00 0.0000000000000000e+00  9.0061067869438627e-01 -1.9476927631646307e-01 0.0000000000000000e+00  3.1903577043294945e-01 -1.6456420162634677e+00 0.0000000000000000e+00  9.4149477408784557e-02 -5.6060462131897200e-02 0.0000000000000000e+00  -1.3384794391029688e+00 -6.8706915689717507e-01 0.0000000000000000e+00  3.2188420369683302e+00 -7.7677601486260928e-01 0.0000000000000000e+00  4.4114556400367586e-02 -2.4711947295745634e-01 0.0000000000000000e+00  6.4716861918669209e-04 -1.3346167639552349e+00 0.0000000000000000e+00  3.6663200611062867e-02 -1.2485008455007562e+00 0.0000000000000000e+00  1.9536439993843899e-01 4.8917495037275529e+00 0.0000000000000000e+00  1.9434634048223144e-04 -1.6049042667166797e-03 0.0000000000000000e+00  3.5080941742831586e-06 -1.5415900951630842e-03 0.0000000000000000e+00  -5.2192757064681738e-02 3.9444368836420740e-01 0.0000000000000000e+00  -2.3204686725343958e-03 4.3255744203141372e-01 0.0000000000000000e+00  -4.9232695612968669e-01 -1.7010764384010433e+00 0.0000000000000000e+00  8.3783485951953907e-01 1.6831073712997691e+00 0.0000000000000000e+00  1.9187153249887220e-02 -1.3078375596641646e-02 0.0000000000000000e+00  2.3569847695866625e-03 -1.2970225977711672e-02 0.0000000000000000e+00  3.1299688209772039e+00 2.3748683600711327e+00 0.0000000000000000e+00  -2.6203252221941478e+00 3.2128876020891708e+00 0.0000000000000000e+00  -1.1728446593871420e+00 -3.0329407190083173e+00 0.0000000000000000e+00  2.0398698882294024e+00 1.2068351188484321e+00 0.0000000000000000e+00  -1.2557971835446477e-03 -4.7132063715534340e-03 0.0000000000000000e+00  -1.6501680651133785e+00 -2.3777928358423681e-01 0.0000000000000000e+00  2.0238149655210078e-03 -5.1399245904718588e-02 0.0000000000000000e+00  1.7155453063712955e-01 -9.9340789701768006e-01 0.0000000000000000e+00  -9.2108062424967085e-01 -5.1359283645641574e-01 0.0000000000000000e+00  5.8621696232577260e-05 4.6493566489964082e-03 0.0000000000000000e+00  -1.9825551053572674e-05 4.5975049633084466e-03 0.0000000000000000e+00  -2.9848903657078535e-01 -4.9455112549719937e-03 0.0000000000000000e+00  -5.9395293981586633e-02 8.6873171425430574e-04 0.0000000000000000e+00  2.9271964006991652e-01 -9.6685015132400378e-05 0.0000000000000000e+00  -6.7488525021665855e-04 -1.3338913382035325e+00 0.0000000000000000e+00  5.2409844636027048e-01 7.2765551990979338e-01 0.0000000000000000e+00  -4.9544366590385325e-01 -3.1273672542180792e-01 0.0000000000000000e+00  1.5866695017202554e-03 -2.0876019135201806e-03 0.0000000000000000e+00  8.5642545769068079e-01 2.8075455131399409e+00 0.0000000000000000e+00  -3.1619977604791433e-02 -9.3176084511273050e-01 0.0000000000000000e+00  -6.2766951622200617e-01 -9.5553747852960258e-01 0.0000000000000000e+00  -3.0146447707878105e-01 -7.6528358296316346e-01 0.0000000000000000e+00  -1.3956720662223483e-02 -1.0185284615529692e-02 0.0000000000000000e+00  2.9764927227230727e-02 -2.0403783596607234e-02 0.0000000000000000e+00  -1.9946215079343976e-01 -8.5329774280031787e-02 0.0000000000000000e+00  -2.4637187687222644e-03 -1.2307754645040166e-02 0.0000000000000000e+00  8.8115037748733960e-01 -5.4052289317953550e-01 0.0000000000000000e+00  4.1416586791609422e-01 -5.0047552511201632e-01 0.0000000000000000e+00  5.4877956172895126e-01 -1.8296399695870141e-01 0.0000000000000000e+00  -5.7505946118742703e-05 -3.1213286969849121e-03 0.0000000000000000e+00  6.2514021050624692e-04 -2.8281119478061425e-03 0.0000000000000000e+00  -6.3760060043153965e-01 2.1227881056318010e+00 0.0000000000000000e+00  -8.1140220580555522e-01 3.1238091570267459e+00 0.0000000000000000e+00  1.2520315987149944e+00 -1.7161749545438826e-01 0.0000000000000000e+00  -3.1544468037466016e-02 -1.3876565988732778e-01 0.0000000000000000e+00  -1.6586362410568103e-01 -3.4772430992672893e-01 0.0000000000000000e+00  -1.0455942570433542e-02 1.3072674612265196e+00 0.0000000000000000e+00  2.7353936613959755e+00 -2.1007855161310816e+00 0.0000000000000000e+00  1.0899747365573999e-02 3.7354942463247935e+00 0.0000000000000000e+00  1.9428488340962139e-04 2.1186811415945489e-03 0.0000000000000000e+00  1.7433620542165391e+00 -7.0962117392946600e-01 0.0000000000000000e+00  -4.4786956871022254e-01 4.1509875046658506e-01 0.0000000000000000e+00  -1.5539691790487073e+00 1.4267758757721203e+00 0.0000000000000000e+00  -6.1365112928576326e-01 -1.3690144146322691e-01 0.0000000000000000e+00  -2.7071723847706948e+00 -6.8370149513002532e-01 0.0000000000000000e+00  -2.3899579290037293e-03 -3.3192327921176719e-03 0.0000000000000000e+00  -4.7084288554477237e-03 -3.1391649813473544e-03 0.0000000000000000e+00  1.4143355209093111e+00 6.8992591362805067e-01 0.0000000000000000e+00  -1.4422854742381936e+00 3.4109064718019763e-02 0.0000000000000000e+00  1.5414986571618514e+00 -1.8725027977164075e+00 0.0000000000000000e+00  -1.2063255751786444e+00 -1.5839515390824460e-01 0.0000000000000000e+00  -1.6251973823311567e+00 3.4238478427890073e-01 0.0000000000000000e+00  1.1492709029090765e-03 -3.4871971270190186e-03 0.0000000000000000e+00  -1.1448419976332808e-03 -2.4445739522588783e-03 0.0000000000000000e+00  1.8379349559383356e+00 6.7105359387518174e-02 0.0000000000000000e+00  6.8454233345338911e-01 -7.4326066525373613e-01 0.0000000000000000e+00  -4.9403140416290908e-01 9.6747514240151744e-01 0.0000000000000000e+00  2.4990227375791410e-03 -3.2582732074264197e-03 0.0000000000000000e+00  2.0233153888443400e-01 -6.9079759406463964e-02 0.0000000000000000e+00  -1.5208184090559332e-04 -1.9106526666475365e-03 0.0000000000000000e+00  2.0948951245352512e-01 4.0347846219371446e+00 0.0000000000000000e+00  -3.4133763177762277e-03 -5.8552746230045886e-03 0.0000000000000000e+00  1.6835960680305923e-01 -3.4577266640108033e+00 0.0000000000000000e+00  -1.0337131770640500e+00 2.8975977871477593e-01 0.0000000000000000e+00  -1.2625027463088252e+00 9.1258771028137775e-01 0.0000000000000000e+00  2.8323087959293319e-01 -3.1183667866652953e-01 0.0000000000000000e+00  8.9415062175158322e-02 -1.5086887478469628e+00 0.0000000000000000e+00  -5.9566449122434181e-02 -1.4560880065596882e+00 0.0000000000000000e+00  4.6693750424405467e-01 -1.0716922481539750e+00 0.0000000000000000e+00  -2.1970659047751705e-02 -1.8488072814790014e-02 0.0000000000000000e+00  -3.5768953763331450e+00 1.9654019145981703e+00 0.0000000000000000e+00  1.3695611593017334e+00 1.4525351462391907e+00 0.0000000000000000e+00  4.9898674577923025e-01 1.1740980771265970e+00 0.0000000000000000e+00  4.6582555868244961e-03 -7.4521784500243956e-03 0.0000000000000000e+00  1.9401490667737439e-02 2.5116697716164555e+00 0.0000000000000000e+00  -2.4293764742015184e-06 -2.1791757946162662e-03 0.0000000000000000e+00  5.9215229075367644e-05 -3.4070553140953582e-03 0.0000000000000000e+00  -7.6417421140151917e-06 -3.3996617215910083e-03 0.0000000000000000e+00  4.1486819869456855e-06 -3.1006267798456702e-03 0.0000000000000000e+00  -4.8267339616903590e-02 3.6990398274202070e+00 0.0000000000000000e+00  1.5015924923636032e-02 1.3189278791329604e+00 0.0000000000000000e+00  3.4803295299567481e-03 -7.0258548343133916e-03 0.0000000000000000e+00  1.1357250645575041e-03 -5.2822684391353120e-03 0.0000000000000000e+00  1.8415945165748610e-03 -5.1031379145079049e-03 0.0000000000000000e+00  -8.8247426561675836e-04 -5.1494052177009971e-03 0.0000000000000000e+00  1.3401670663558813e+00 -3.5744571489983445e-01 0.0000000000000000e+00  -1.1648215434356225e-02 -4.5054756711148