<?xml version="1.0"?>
<VTKFile type="UnstructuredGrid"  version="0.1"  >
<UnstructuredGrid>
<Piece  NumberOfPoints="5584" NumberOfCells="10785">
<Points>
<DataArray  type="Float64"  NumberOfComponents="3"  format="ascii">0 1.5 0  0 0 0  1 0 0  1 1.5 0  0.35 0.65 0  0.65 0.65 0  0.65 0.35 0  0.35 0.35 0  0.5968583161128631 1.224868988716485 0  0.6 1.2 0  0.5968583161128631 1.175131011283514 0  0.5876306680043863 1.151824632589828 0  0.5728968627421411 1.131545289407131 0  0.5535826794978996 1.115567207449798 0  0.5309016994374948 1.104894348370485 0  0.5062790519529313 1.100197327157173 0  0.4812618685414276 1.101771274927131 0  0.4574220708434928 1.109517294753398 0  0.436257601025131 1.122948675722421 0  0.4190983005625052 1.141221474770753 0  0.4070223514111748 1.163187544731532 0  0.4007885298685522 1.18746667664357 0  0.4007885298685522 1.21253332335643 0  0.4070223514111749 1.236812455268468 0  0.4190983005625052 1.258778525229247 0  0.436257601025131 1.277051324277579 0  0.4574220708434927 1.290482705246602 0  0.4812618685414276 1.298228725072869 0  0.5062790519529313 1.299802672842827 0  0.5309016994374948 1.295105651629515 0  0.5535826794978996 1.284432792550201 0  0.5728968627421411 1.268454710592869 0  0.5876306680043863 1.248175367410171 0  0.5 0 0  0 0.75 0  1 0.75 0  0.5 1.5 0  0 0.375 0  1 0.375 0  0 1.125 0  1 1.125 0  0.2364431626261654 0.9150510691915791 0  0.7635359158896152 0.9151242943863466 0  0.75 1.5 0  0.25 1.5 0  0.25 0 0  0.75 0 0  0.4784599497470843 0.8576307053159276 0  0 1.3125 0  1 1.3125 0  0 0.1875 0  1 0.1875 0  0.8151785714285714 0.5 0  0 0.5625 0  0.8049841825030156 1.2385284622115 0  0.2037719235931248 1.276058442736962 0  0.1825892857142857 0.46875 0  0.7939338235294118 0.2018382352941176 0  0.2060661764705882 0.2018382352941177 0  0.5 0.35 0  0.6048949210808516 0.1621878909653493 0  0.3951050789191484 0.1621878909653493 0  1 0.5625 0  1 0.9375 0  0 0.9375 0  0.8300504758824617 0.6823233344113842 0  0.1853775764381173 0.7363215175334108 0  0.2373657759194461 1.09711662946253 0  0.8374351371878859 1.070011329380144 0  0.875 1.5 0  0.125 1.5 0  0.6062042178008371 0.9597305931201837 0  0.625590571903992 0.8045101662315939 0  0.35 0.5 0  0.5 0.65 0  0.65 0.5 0  0.8469874054402771 0.3478957913091444 0  0.375 1.5 0  0.3787535231798475 0.9761249510089064 0  0.625 1.5 0  0.7018167422048079 1.353350655050184 0  0.125 0 0  0.875 0 0  0.8734283952807402 0.8206195856544944 0  0.3207274586184861 0.7943099821949678 0  0.125852356274071 1.006646603510477 0  0.3125 1.370355983993781 0  0.1001109813395758 0.84375 0  0.8361527859043789 1.370292305154549 0  0.1382805521602539 0.3303643480715599 0  0.1361745501195396 0.6030339622396202 0  0.6976642487515485 1.065518809512825 0  0 1.21875 0  0.1254577894064276 1.168731749028377 0  0.375 0 0  0.625 0 0  0.7510140097352347 0.7894182637236186 0  0.8790452297356347 0.9550856501780677 0  0.1155816828226797 1.370862211451547 0  0.2507810137401653 0.5674837274123802 0  0.425 0.7403372498932393 0  0.4342557579616577 1.402339971385472 0  0.4926856620014251 0.9707967391297243 0  0.5902938770522754 1.391884256109841 0  0.8947278994479594 1.168427133233751 0  0 0.09375 0  0.117501592172302 0.120210456229736 0  1 0.09375 0  0.8932064825261059 0.140625 0  1 0.46875 0  0.7491117359292689 0.4068056351799293 0  0.7325892857142857 0.575 0  0.9077195128926427 0.2526498093370785 0  0.2862335767983502 0.1135875300027696 0  0.6875 0.09008767814013303 0  0.2876275375426245 1.199176877928066 0  0.425 0.2686897619023091 0  0.575 0.2686897619023091 0  0.2473344065696833 0.3057417823420628 0  0.5316453886109539 0.752574668986595 0  0.7453015779946386 0.2985879063046734 0  0.5 0.1150143090901798 0  1 1.40625 0  0.7013323955547213 1.225434196391494 0  0.9036798074538328 1.272382980180387 0  1 1.03125 0  1 0.65625 0  0.8891650081440881 0.5857332208147272 0  0.1007677805315621 0.2272256552865915 0  0.7968715917092577 0.09549815361541228 0  0.3261120109539702 0.2390008113368489 0  0 0.46875 0  0.09140542126065337 0.4216592458712581 0  0.35 0.425 0  0.7651164422570014 1.143468154563297 0  0.09472466320369284 1.26853663142193 0  0.08921587689551835 0.6960941425748194 0  0.2141236400534484 1.40281708845578 0  0.6682645595483953 0.237422322813065 0  0.8998020018038841 0.4383187780156251 0  0.3309306437258974 0.8912206104221932 0  0 0.28125 0  1 0.28125 0  0 0.65625 0  0 0.84375 0  0 1.03125 0  1 0.84375 0  0 1.40625 0  1 1.21875 0  0.339382516603148 1.073223882837075 0  0.286317207567006 0.9951759182622995 0  0.1006473955151142 0.5155906191247079 0  0.2531855684977951 0.6655018939994033 0  0.1938148195674164 0.8305707362095592 0  0.7348836338756599 0.694801913506495 0  0.9202166509295927 0.703125 0  0.2003567957464576 0.07840869841509678 0  0.6711458985020725 0.8890206767366003 0  0.6966131207025332 0.975435518234489 0  0.2077866146074518 0.3843959659369329 0  0.9244179047216532 1.359375 0  0.2665605884847265 0.4478926490851416 0  0.2902364272115729 1.286194351631958 0  0.08339241575003152 1.087586295501586 0  0.8015937827884826 0.9920390441018914 0  0.9252732102535306 1.078125 0  0.5 0.2101535921113944 0  0.4011776650759537 0.8220246829162232 0  0.4197556514239601 0.07679209038960186 0  0.5625 0 0  0.59375 0.0784662732531748 0  0.6875 1.5 0  0.7325892857142857 0.4920267325680271 0  0.204835680871921 1.193046767632362 0  0.08637007015464784 0.9294035406844091 0  0.5768760768787522 1.036630020704703 0  0.9314290531500782 0.890625 0  0.5683106907030949 0.8761770079449056 0  0.9313289977941566 0.5146846620677518 0  0.2053060218923775 0.9900170894042093 0  0.6752157373212424 1.146033498046018 0  0.8093088642695168 0.6032446443778432 0  0.575 0.65 0  0.6125 0.7232589482421361 0  0.5111121719842455 1.379761122853962 0  0.0625 0 0  0.9375 0 0  0.9375 1.5 0  0.0625 1.5 0  0.4111048225600165 0.9021509249006177 0  0.7623143099118797 1.41471375527577 0  0.9285477532453221 0.3329160394873349 0  0.8313221886708546 0.2709216822179099 0  0.6550346876206982 1.28956864569925 0  0.3718461865848758 1.320344441155674 0  0.4384030243440347 1.030840154672398 0  0.7459267962262177 1.289224489139695 0  0.739498116874331 0.1471237652498467 0  0.15994416688928 1.099378233153651 0  0.8242493456480263 0.4235545458621132 0  0.6837310563681893 0.7522056462208524 0  0.1593713391201386 0.9009459281285223 0  0.575 0.35 0  0.425 0.35 0  0.65 0.575 0  0.65 0.425 0  0.35 0.575 0  0.425 0.65 0  0.8877888478983736 1.425498582050861 0  0.1154686220942957 0.7683869154567289 0  0.927740984819444 0.07421434345370401 0  0.6636888337009441 1.423651905338443 0  0.3111176381890867 0.717236795593199 0  0.2699449164274207 0.8486490283800668 0  0.2538235200489132 0.7635161660860261 0  0.07268341085386848 0.295831542634192 0  0.2809346456198019 0.3756380899622044 0  0.06016708416056031 0.609375 0  0.1649291821849979 0.2622806563448759 0  0.8370719191227541 0.8894885899614881 0  0.8236216120582218 0.7602908797315113 0  0.9312970360380535 0.7756006047787171 0  0.3125 0 0  0.3456514073649527 0.06854302435898529 0  0.2789852006100069 1.434086156320743 0  0.3629868944608692 1.425904089962363 0  0.9317696005208419 1.005480200516477 0  0.1683911127111243 0.5390059746847954 0  0.1794577493844935 0.662781405933159 0  0.8125 1.5 0  0.6309227210903018 1.09029723761436 0  0.5625 1.5 0  0.4942305993535075 0.2800767960556972 0  0.7679690211037765 1.054718968911644 0  0.06970979214076235 1.427485138572825 0  0.240470326122646 1.336863484064373 0  0.05005549066978789 0.796875 0  0.2989222212362155 1.130208202029246 0  0.6737459127500345 0.1685001996464485 0  0.06628889425102936 0.1670183213191904 0  0.8390382472923372 1.300041379958112 0  0.05401127896696312 1.171875 0  0.6427040146773578 1.017693340474958 0  0.05779864542571933 0.9927197249867298 0  0.1498357829311211 1.230872814682862 0  0.8618649220619343 0.08214238637309584 0  0.09375 0.05838980176088906 0  0.8265218610406583 1.173605382038775 0  0.7820022533001192 0.8498081290429536 0  0.149793317731302 1.433279421988418 0  0.3263950934941324 0.169863961403198 0  0.9519733644606326 0.609375 0  0.53125 0.05750715454508989 0  0.53125 1.442255127775078 0  0.7289531798358591 0.2120513939389277 0  0.5108622032577443 1.034301592763787 0  0.06472987771920244 1.327938900389769 0  0.1731653006354684 1.336007864517053 0  0.2972650224186558 0.6125 0  0.5332004607667531 0.8193527264726512 0  0.4718056302720849 0.7898339058901962 0  0.6914972922139961 0.8235167360098176 0  0.08140105122587579 0.3588411210502321 0  0.3485736733566453 1.261371637767952 0  0.7661854106029202 1.350393584920444 0  0.8236846226501098 1.436009827398209 0  0.2598323266513226 0.2406306847305864 0  0.3125 1.5 0  0.4375 0 0  0.1875 0 0  0.8125 0 0  0.6875 0 0  0.4375 1.5 0  0.1875 1.5 0  0.8622855643385526 0.2015833648813345 0  0.8279152575258683 0.1495663913815799 0  0.2627640498257702 0.1728052841079521 0  0.1800607144524293 0.1411943334622621 0  0.8703699675038892 1.016940210063741 0  0.1531104911380159 0.4140040574183872 0  0.05005549066978791 0.8796488403725388 0  0.8850785900303794 0.6496168012286881 0  0.546629235950962 0.9363796584761916 0  0.6022430398015765 1.327804788323255 0  0.2360971875471279 0.504709688284624 0  0.1958628693609714 0.5929478639628611 0  0.3029466007669289 0.5375 0  0.7120149004037095 0.6353169502744931 0  0.28125 0.05260436823277936 0  0.9412742001334101 0.3930080174094802 0  0.1972681249417996 1.050771436715852 0  0.7779012740651824 0.6537420776419078 0  0.4723056998978993 1.447684302589501 0  0.3741601757160196 0.769828283787137 0  0.3723220811953492 0.707769671709656 0  0.4625 0.6951686249466197 0  0.8750375567166919 0.4932333314793089 0  0.1477326199654788 0.1909551566321114 0  0.3485723657661551 1.161119991775023 0  1 1.171875 0  0.936062194474129 1.217231089222022 0  0.9342249539166885 0.1922634780484449 0  1 0.140625 0  0.7271875340276345 0.8695792902604712 0  0.5622796583217582 0.2076725143819285 0  0.4377203416782418 0.2076725143819285 0  0.3832688090653011 0.2281554719838642 0  0.94241244
[...]
<PointData  Vectors="f_93"> 
<DataArray  type="Float64"  Name="f_93"  NumberOfComponents="3" format="ascii">3.8557441468567107e-03 -5.9785669798234879e+00 0.0000000000000000e+00  -1.2879555064523308e-02 -2.4755856177009063e-02 0.0000000000000000e+00  -2.0137016018516629e+00 -2.0166359008061678e-02 0.0000000000000000e+00  -1.9910077249473357e+00 -5.9809157782954765e+00 0.0000000000000000e+00  -6.9744588464391510e-01 -2.6098175321735613e+00 0.0000000000000000e+00  -1.3008367650473496e+00 -2.6000538358471625e+00 0.0000000000000000e+00  -1.3030565047001550e+00 -1.3932483068600414e+00 0.0000000000000000e+00  -7.0113482926541226e-01 -1.3926999964415316e+00 0.0000000000000000e+00  -1.2024505042264351e+00 -4.8998784088111220e+00 0.0000000000000000e+00  -1.1995310669523092e+00 -4.7901077685411471e+00 0.0000000000000000e+00  -1.1953065104292864e+00 -4.6935721003697219e+00 0.0000000000000000e+00  -1.1807375696468527e+00 -4.6126414288922781e+00 0.0000000000000000e+00  -1.1531235850500243e+00 -4.5316211914187035e+00 0.0000000000000000e+00  -1.1227978530995717e+00 -4.4565180629591996e+00 0.0000000000000000e+00  -1.0602578151441544e+00 -4.4034348586181897e+00 0.0000000000000000e+00  -1.0146298924082149e+00 -4.3706638212656994e+00 0.0000000000000000e+00  -9.5765086654850973e-01 -4.3860692873162366e+00 0.0000000000000000e+00  -9.1621165739757204e-01 -4.4334624265542688e+00 0.0000000000000000e+00  -8.6425133114567765e-01 -4.4769764713962577e+00 0.0000000000000000e+00  -8.3608229233908360e-01 -4.5571459414845421e+00 0.0000000000000000e+00  -8.0538706546278971e-01 -4.6532891998827965e+00 0.0000000000000000e+00  -8.0490559029432740e-01 -4.7525006329601558e+00 0.0000000000000000e+00  -7.9856442695529850e-01 -4.8383661265293680e+00 0.0000000000000000e+00  -8.0799207731974476e-01 -4.9480031066251717e+00 0.0000000000000000e+00  -8.2994431011686953e-01 -5.0372816086145269e+00 0.0000000000000000e+00  -8.6540891252817032e-01 -5.1262111338707914e+00 0.0000000000000000e+00  -9.0936904975644672e-01 -5.1835606382752841e+00 0.0000000000000000e+00  -9.5428353133274713e-01 -5.2168652029242164e+00 0.0000000000000000e+00  -1.0255829574463429e+00 -5.2211039481043420e+00 0.0000000000000000e+00  -1.0615710171337462e+00 -5.1908828971027061e+00 0.0000000000000000e+00  -1.1118657528853362e+00 -5.1512887242199579e+00 0.0000000000000000e+00  -1.1488659101026153e+00 -5.0651398333720810e+00 0.0000000000000000e+00  -1.1746351426435557e+00 -5.0104740835753701e+00 0.0000000000000000e+00  -1.0031297608753611e+00 -2.1832832082761870e-02 0.0000000000000000e+00  8.4836341323165920e-03 -2.9981607002538038e+00 0.0000000000000000e+00  -1.9998159361178616e+00 -3.0021170603002298e+00 0.0000000000000000e+00  -9.9423243619156965e-01 -5.9846127557960358e+00 0.0000000000000000e+00  -3.8022125151386480e-03 -1.4995871884880394e+00 0.0000000000000000e+00  -1.9988609407216420e+00 -1.5041211736912319e+00 0.0000000000000000e+00  -4.8234652077559026e-03 -4.4977119507750638e+00 0.0000000000000000e+00  -1.9993608555418889e+00 -4.4942705091211268e+00 0.0000000000000000e+00  -4.6992008889451098e-01 -3.6537138395425717e+00 0.0000000000000000e+00  -1.5306550220253798e+00 -3.6574361576715395e+00 0.0000000000000000e+00  -1.4983592069338894e+00 -5.9818674696163248e+00 0.0000000000000000e+00  -5.0116357411375412e-01 -5.9879520594445026e+00 0.0000000000000000e+00  -5.0143972095472944e-01 -2.3200090071457992e-02 0.0000000000000000e+00  -1.4914741512406158e+00 -2.0798790275236755e-02 0.0000000000000000e+00  -9.5141694843416891e-01 -3.4276474585118271e+00 0.0000000000000000e+00  -1.1577019801595762e-03 -5.2496500819651120e+00 0.0000000000000000e+00  -2.0060716329600750e+00 -5.2456809600949210e+00 0.0000000000000000e+00  -1.5778167658614792e-03 -7.3834898131362603e-01 0.0000000000000000e+00  -1.9891696564249148e+00 -7.5979050394079128e-01 0.0000000000000000e+00  -1.6317449003663727e+00 -2.0010384430430763e+00 0.0000000000000000e+00  -8.5866784042289704e-05 -2.2548503962509177e+00 0.0000000000000000e+00  -1.6024134339182465e+00 -4.9583522089367875e+00 0.0000000000000000e+00  -4.1093993783086524e-01 -5.1121395962903700e+00 0.0000000000000000e+00  -3.6078049903069853e-01 -1.8783629842268956e+00 0.0000000000000000e+00  -1.5877418096863791e+00 -8.1014455307227240e-01 0.0000000000000000e+00  -4.1102250820476222e-01 -8.0040393343864702e-01 0.0000000000000000e+00  -9.9031223935098811e-01 -1.3795934571733421e+00 0.0000000000000000e+00  -1.2065707299411850e+00 -6.5629444851648966e-01 0.0000000000000000e+00  -7.8874119394538889e-01 -6.5604521899111490e-01 0.0000000000000000e+00  -1.9993650571720458e+00 -2.2449213246524127e+00 0.0000000000000000e+00  -1.9956913002369769e+00 -3.7473781760037492e+00 0.0000000000000000e+00  -3.5204077772320124e-03 -3.7535131313451902e+00 0.0000000000000000e+00  -1.6554631135865345e+00 -2.7273186751109084e+00 0.0000000000000000e+00  -3.7492768730306708e-01 -2.9417356756494772e+00 0.0000000000000000e+00  -4.7931785024829343e-01 -4.3873537104133291e+00 0.0000000000000000e+00  -1.6739918151517386e+00 -4.2771738660140857e+00 0.0000000000000000e+00  -1.7461925789215578e+00 -5.9774527395071511e+00 0.0000000000000000e+00  -2.4127749579307292e-01 -5.9747660481435698e+00 0.0000000000000000e+00  -1.2128972933958526e+00 -3.8351203235559810e+00 0.0000000000000000e+00  -1.2582715062619585e+00 -3.2173113272294733e+00 0.0000000000000000e+00  -6.9503986396323481e-01 -2.0025783459235869e+00 0.0000000000000000e+00  -9.9978876369155967e-01 -2.6163354775402650e+00 0.0000000000000000e+00  -1.3001308048571980e+00 -1.9984977511781625e+00 0.0000000000000000e+00  -1.6938160107671996e+00 -1.3854524282821972e+00 0.0000000000000000e+00  -7.4799004355331877e-01 -5.9809985359441891e+00 0.0000000000000000e+00  -7.6035148923238494e-01 -3.9021480011510143e+00 0.0000000000000000e+00  -1.2624872788280950e+00 -5.9775231921368510e+00 0.0000000000000000e+00  -1.4000185350092704e+00 -5.4248677027829535e+00 0.0000000000000000e+00  -2.4584880448376847e-01 -2.5294957686522068e-02 0.0000000000000000e+00  -1.7583124399331012e+00 -2.0632559019229207e-02 0.0000000000000000e+00  -1.7500837193436185e+00 -3.2826680901335807e+00 0.0000000000000000e+00  -6.4035248597352878e-01 -3.1789265136201004e+00 0.0000000000000000e+00  -2.5285632907217748e-01 -4.0222605723267488e+00 0.0000000000000000e+00  -6.2142502838424396e-01 -5.4817771319968402e+00 0.0000000000000000e+00  -2.0382158304871306e-01 -3.3789319213580082e+00 0.0000000000000000e+00  -1.6670616639518272e+00 -5.4747229965807183e+00 0.0000000000000000e+00  -2.8468487317038799e-01 -1.3146445363368666e+00 0.0000000000000000e+00  -2.7407846674894082e-01 -2.4223412089942644e+00 0.0000000000000000e+00  -1.3939203297341554e+00 -4.2638019549803952e+00 0.0000000000000000e+00  -4.1548382081119748e-03 -4.8746666816709245e+00 0.0000000000000000e+00  -2.4772559695295801e-01 -4.6765439474007229e+00 0.0000000000000000e+00  -7.5034739092830927e-01 -1.6038053889268190e-02 0.0000000000000000e+00  -1.2433087845203563e+00 -2.5559964894903930e-02 0.0000000000000000e+00  -1.4998262584924145e+00 -3.1557954193054791e+00 0.0000000000000000e+00  -1.7630593086814592e+00 -3.8214637664063642e+00 0.0000000000000000e+00  -2.3495484196887423e-01 -5.4851739027061308e+00 0.0000000000000000e+00  -5.0809611282833567e-01 -2.2599166335818945e+00 0.0000000000000000e+00  -8.4790962258324154e-01 -2.9657596555302241e+00 0.0000000000000000e+00  -8.6703988490670125e-01 -5.6096838119526886e+00 0.0000000000000000e+00  -9.8838585437574089e-01 -3.8870714058984550e+00 0.0000000000000000e+00  -1.1835696495926591e+00 -5.5677230777669973e+00 0.0000000000000000e+00  -1.7843050400994798e+00 -4.6761960460935343e+00 0.0000000000000000e+00  8.9994325937987896e-03 -3.8069502392079746e-01 0.0000000000000000e+00  -2.3787098286473024e-01 -4.7164793530592958e-01 0.0000000000000000e+00  -1.9953197308915951e+00 -3.6876940904840544e-01 0.0000000000000000e+00  -1.7909449264052966e+00 -5.6296440889687593e-01 0.0000000000000000e+00  -1.9999804082636565e+00 -1.8605527797376522e+00 0.0000000000000000e+00  -1.4972173028689386e+00 -1.6259297349674351e+00 0.0000000000000000e+00  -1.4621830061616328e+00 -2.3033157773976805e+00 0.0000000000000000e+00  -1.8118999487514627e+00 -1.0106667392541566e+00 0.0000000000000000e+00  -5.7693444870978761e-01 -4.5048087933239678e-01 0.0000000000000000e+00  -1.3752092010404247e+00 -3.6030780972235021e-01 0.0000000000000000e+00  -5.7769614867826014e-01 -4.7963420763777798e+00 0.0000000000000000e+00  -8.5275357830466103e-01 -1.0757574083824764e+00 0.0000000000000000e+00  -1.1460227695863736e+00 -1.0741790270524116e+00 0.0000000000000000e+00  -4.9238101428744940e-01 -1.2156614106551979e+00 0.0000000000000000e+00  -1.0642347616610506e+00 -3.0113062059263171e+00 0.0000000000000000e+00  -1.4907291301954433e+00 -1.2040003051414603e+00 0.0000000000000000e+00  -9.9886895181548507e-01 -4.5715033914129777e-01 0.0000000000000000e+00  -2.0025977870366320e+00 -5.6199111486455839e+00 0.0000000000000000e+00  -1.4003129012054980e+00 -4.8959979621323191e+00 0.0000000000000000e+00  -1.8046088295754472e+00 -5.0903458508829038e+00 0.0000000000000000e+00  -2.0006346544477203e+00 -4.1251879096953585e+00 0.0000000000000000e+00  -1.9972403332094786e+00 -2.6287928925540673e+00 0.0000000000000000e+00  -1.7819327664023101e+00 -2.3496886373440904e+00 0.0000000000000000e+00  -1.9914419441681674e-01 -9.0995674968184304e-01 0.0000000000000000e+00  -1.5976177617019995e+00 -3.7706100749378835e-01 0.0000000000000000e+00  -6.4946686329440728e-01 -9.5896068439874638e-01 0.0000000000000000e+00  -3.1197641103656849e-04 -1.8760763775185210e+00 0.0000000000000000e+00  -1.8113298481779455e-01 -1.6835711379852552e+00 0.0000000000000000e+00  -6.9733268125817838e-01 -1.6975732627066349e+00 0.0000000000000000e+00  -1.5267534170749590e+00 -4.5769965000071204e+00 0.0000000000000000e+00  -1.8726546406111028e-01 -5.0767451063648581e+00 0.0000000000000000e+00  -1.7880926104100464e-01 -2.7851449624122231e+00 0.0000000000000000e+00  -4.2803764278157980e-01 -5.6001699503343785e+00 0.0000000000000000e+00  -1.3391121285986869e+00 -9.5231952776884177e-01 0.0000000000000000e+00  -1.7955623068768956e+00 -1.7498051891231325e+00 0.0000000000000000e+00  -6.5935648779229572e-01 -3.5614940705645561e+00 0.0000000000000000e+00  -8.3895551222372508e-04 -1.1219950890808894e+00 0.0000000000000000e+00  -1.9910074433860971e+00 -1.1167252725359995e+00 0.0000000000000000e+00  6.8995327692687970e-03 -2.6249178367872634e+00 0.0000000000000000e+00  5.5492127808166695e-04 -3.3541420708553416e+00 0.0000000000000000e+00  -6.2729369173118200e-03 -4.1389840684899397e+00 0.0000000000000000e+00  -1.9976842488457276e+00 -3.3766043352981825e+00 0.0000000000000000e+00  -3.0495868057296470e-03 -5.6284663880538224e+00 0.0000000000000000e+00  -1.9979340869288860e+00 -4.8774897931230425e+00 0.0000000000000000e+00  -6.8540494718254175e-01 -4.2898086304121827e+00 0.0000000000000000e+00  -5.6902604508037768e-01 -3.9859049746416875e+00 0.0000000000000000e+00  -1.9580882255587836e-01 -2.0575754543341525e+00 0.0000000000000000e+00  -5.0758411073739118e-01 -2.6593095388157892e+00 0.0000000000000000e+00  -3.8827388721154527e-01 -3.3193981753610720e+00 0.0000000000000000e+00  -1.4679825506132635e+00 -2.7905283981492692e+00 0.0000000000000000e+00  -1.8385123106955108e+00 -2.8114531561743856e+00 0.0000000000000000e+00  -3.9496508551237414e-01 -3.0998423233887223e-01 0.0000000000000000e+00  -1.3425375780287276e+00 -3.5499666168446486e+00 0.0000000000000000e+00  -1.3957473338144297e+00 -3.8985953290805968e+00 0.0000000000000000e+00  -4.0931373133181426e-01 -1.5440931157682729e+00 0.0000000000000000e+00  -1.8420798456393936e+00 -5.4362651512150872e+00 0.0000000000000000e+00  -5.3001087649307477e-01 -1.7821980856827115e+00 0.0000000000000000e+00  -5.8026258062363378e-01 -5.1498827510293239e+00 0.0000000000000000e+00  -1.6354507133367860e-01 -4.3493968136544625e+00 0.0000000000000000e+00  -1.6077824197857142e+00 -3.9719025404900172e+00 0.0000000000000000e+00  -1.8503430405086903e+00 -4.3101109023159534e+00 0.0000000000000000e+00  -1.0035856646565271e+00 -8.4611849527832605e-01 0.0000000000000000e+00  -8.0211740975779566e-01 -3.2841487529021109e+00 0.0000000000000000e+00  -8.3676105823641689e-01 -3.0452115683569114e-01 0.0000000000000000e+00  -1.1173268712894440e+00 -1.8560675153402928e-02 0.0000000000000000e+00  -1.1856112713407763e+00 -3.2765959099201786e-01 0.0000000000000000e+00  -1.3699815722020801e+00 -5.9877119790344846e+00 0.0000000000000000e+00  -1.4641243919630837e+00 -1.9714694844413889e+00 0.0000000000000000e+00  -4.1141043107088332e-01 -4.7755479560506453e+00 0.0000000000000000e+00  -1.7197850948669460e-01 -3.7213637071466517e+00 0.0000000000000000e+00  -1.1540958503989507e+00 -4.1401083427269540e+00 0.0000000000000000e+00  -1.8670934619706969e+00 -3.5613919374236040e+00 0.0000000000000000e+00  -1.1386658056147601e+00 -3.4942330289823347e+00 0.0000000000000000e+00  -1.8668979944208319e+00 -2.0654715312248086e+00 0.0000000000000000e+00  -4.1506093250586906e-01 -3.9676676262033554e+00 0.0000000000000000e+00  -1.3518272486665763e+00 -4.5786842672229140e+00 0.0000000000000000e+00  -1.6170734810762724e+00 -2.4103173292270088e+00 0.0000000000000000e+00  -1.1527640664215277e+00 -2.6202101217663816e+00 0.0000000000000000e+00  -1.2233209172891437e+00 -2.8985456102488700e+00 0.0000000000000000e+00  -1.0177878653244485e+00 -5.5218983583677179e+00 0.0000000000000000e+00  -1.2336190122138929e-01 -2.2485682359618606e-02 0.0000000000000000e+00  -1.8809839785236713e+00 -2.5843927437947400e-02 0.0000000000000000e+00  -1.8758997054092801e+00 -5.9718164136597869e+00 0.0000000000000000e+00  -1.3177324663297746e-01 -5.9825238015217099e+00 0.0000000000000000e+00  -8.2174771583356965e-01 -3.6074213540956945e+00 0.0000000000000000e+00  -1.5257765843562130e+00 -5.6601534382109326e+00 0.0000000000000000e+00  -1.8638103397934109e+00 -1.3385806950459005e+00 0.0000000000000000e+00  -1.6605954521016710e+00 -1.0755250287812144e+00 0.0000000000000000e+00  -1.3076781434247926e+00 -5.1574575438919865e+00 0.0000000000000000e+00  -7.4730254189315148e-01 -5.2797810607210298e+00 0.0000000000000000e+00  -8.8421605317333563e-01 -4.1272641381311228e+00 0.0000000000000000e+00  -1.4930689389599840e+00 -5.1624086954086970e+00 0.0000000000000000e+00  -1.4879094473732413e+00 -5.8826471897089483e-01 0.0000000000000000e+00  -3.2189795557746376e-01 -4.3965265580790129e+00 0.0000000000000000e+00  -1.6536281128826924e+00 -1.6912355062818916e+00 0.0000000000000000e+00  -1.3694970185601030e+00 -3.0101771903756531e+00 0.0000000000000000e+00  -3.1535690672661104e-01 -3.6023229281037281e+00 0.0000000000000000e+00  -1.1499031506146229e+00 -1.3949424652008264e+00 0.0000000000000000e+00  -8.5565847200600764e-01 -1.3882561250619139e+00 0.0000000000000000e+00  -1.3031124336112201e+00 -2.3039871089449910e+00 0.0000000000000000e+00  -1.2976978676289888e+00 -1.6996578530563247e+00 0.0000000000000000e+00  -6.9883718137695505e-01 -2.3013534555435657e+00 0.0000000000000000e+00  -8.4868343499198562e-01 -2.6070020607503310e+00 0.0000000000000000e+00  -1.7724349871992688e+00 -5.7071143023946540e+00 0.0000000000000000e+00  -2.2918255801393506e-01 -3.0749548678896170e+00 0.0000000000000000e+00  -1.8566060329483662e+00 -2.9130303772036481e-01 0.0000000000000000e+00  -1.3228119922832309e+00 -5.7007518205070875e+00 0.0000000000000000e+00  -6.2238696083464329e-01 -2.8740920622016017e+00 0.0000000000000000e+00  -5.3859388021793719e-01 -3.3861501691110787e+00 0.0000000000000000e+00  -5.0497769779467361e-01 -3.0502818527372590e+00 0.0000000000000000e+00  -1.4844710748716403e-01 -1.1887889208999880e+00 0.0000000000000000e+00  -5.5837510102194354e-01 -1.5114130903123777e+00 0.0000000000000000e+00  -1.1892164865055967e-01 -2.4353160114343790e+00 0.0000000000000000e+00  -3.2601012555560555e-01 -1.0570193159254915e+00 0.0000000000000000e+00  -1.6717386135345724e+00 -3.5522774322622737e+00 0.0000000000000000e+00  -1.6426760717900766e+00 -3.0368579788016836e+00 0.0000000000000000e+00  -1.8685623678738499e+00 -3.1010421051663801e+00 0.0000000000000000e+00  -6.2615752303956385e-01 -2.5208078603636712e-02 0.0000000000000000e+00  -6.9396187652908037e-01 -2.6748335500165732e-01 0.0000000000000000e+00  -5.5526047985865989e-01 -5.7461312857952143e+00 0.0000000000000000e+00  -7.2526786878375937e-01 -5.7125041209058791e+00 0.0000000000000000e+00  -1.8603996404600389e+00 -4.0267359697727674e+00 0.0000000000000000e+00  -3.3530519531398584e-01 -2.1553495140044809e+00 0.0000000000000000e+00  -3.6098916081599974e-01 -2.6588325951805527e+00 0.0000000000000000e+00  -1.6294841608344719e+00 -5.9843446231401707e+00 0.0000000000000000e+00  -1.2604444827635750e+00 -4.3626902812342454e+00 0.0000000000000000e+00  -1.1220024324387901e+00 -5.9811770501415085e+00 0.0000000000000000e+00  -9.8855490863969320e-01 -1.1183352727045182e+00 0.0000000000000000e+00  -1.5385648276376640e+00 -4.2184915739677651e+00 0.0000000000000000e+00  -1.4035271035689040e-01 -5.7144329359703736e+00 0.0000000000000000e+00  -4.8044684722787490e-01 -5.3461333007115552e+00 0.0000000000000000e+00  -9.6126578131373930e-02 -3.1878901355677050e+00 0.0000000000000000e+00  -5.9863299776775925e-01 -4.5315162322368634e+00 0.0000000000000000e+00  -1.3516031625392424e+00 -6.7328585693819276e-01 0.0000000000000000e+00  -1.3065432436970831e-01 -6.6353894088151588e-01 0.0000000000000000e+00  -1.6782568352312452e+00 -5.1988844712478777e+00 0.0000000000000000e+00  -1.0194043051601312e-01 -4.6910615799329305e+00 0.0000000000000000e+00  -1.2866365499283545e+00 -4.0742785349087134e+00 0.0000000000000000e+00  -1.1848946967535950e-01 -3.9786127014121369e+00 0.0000000000000000e+00  -2.9975715776318973e-01 -4.9198168767950490e+00 0.0000000000000000e+00  -1.7265219815561164e+00 -3.3069147248721664e-01 0.0000000000000000e+00  -1.9166566634661295e-01 -2.3246188241269861e-01 0.0000000000000000e+00  -1.6537319327482982e+00 -4.6904302760962748e+00 0.0000000000000000e+00  -1.5618071745974169e+00 -3.3965921785308839e+00 0.0000000000000000e+00  -3.0041313663455066e-01 -5.7338978581903532e+00 0.0000000000000000e+00  -6.4550993209824370e-01 -6.7451714654204775e-01 0.0000000000000000e+00  -1.9035629951103654e+00 -2.4399892186922281e+00 0.0000000000000000e+00  -1.0592408215541957e+00 -2.2984218177643756e-01 0.0000000000000000e+00  -1.0683728534668957e+00 -5.7700906956292588e+00 0.0000000000000000e+00  -1.4573259265050231e+00 -8.4605215362767516e-01 0.0000000000000000e+00  -1.0182249877997265e+00 -4.1359177235751199e+00 0.0000000000000000e+00  -1.3336800272071614e-01 -5.3128713123621267e+00 0.0000000000000000e+00  -3.4389372005350105e-01 -5.3478834643482740e+00 0.0000000000000000e+00  -5.9627524721011771e-01 -2.4540538187596099e+00 0.0000000000000000e+00  -1.0668580743751150e+00 -3.2704923886290529e+00 0.0000000000000000e+00  -9.4402606625896135e-01 -3.1699774803850369e+00 0.0000000000000000e+00  -1.3811923883156882e+00 -3.2866911838396291e+00 0.0000000000000000e+00  -1.6509324739193809e-01 -1.4274522340465918e+00 0.0000000000000000e+00  -6.9095957897153593e-01 -5.0510753869252163e+00 0.0000000000000000e+00  -1.5304731581954139e+00 -5.3987775670097546e+00 0.0000000000000000e+00  -1.6430015723855054e+00 -5.7504627775245281e+00 0.0000000000000000e+00  -5.2417439696979173e-01 -9.6371118926326582e-01 0.0000000000000000e+00  -6.2084740906500002e-01 -5.9817857918029036e+00 0.0000000000000000e+00  -8.6415351800307560e-01 -3.1429560769276020e-02 0.0000000000000000e+00  -3.7417489378716934e-01 -1.8009224914389693e-02 0.0000000000000000e+00  -1.6269985321536524e+00 -2.1734235673804954e-02 0.0000000000000000e+00  -1.3774206608596553e+00 -6.6787918638848802e-03 0.0000000000000000e+00  -8.7476646600233288e-01 -5.9765833501396441e+00 0.0000000000000000e+00  -3.7028653549062718e-01 -5.9819731453960250e+00 0.0000000000000000e+00  -1.7249126881445058e+00 -7.9897446498549474e-01 0.0000000000000000e+00  -1.6602374250132736e+00 -5.9639697589376339e-01 0.0000000000000000e+00  -5.2947025145398330e-01 -