<?xml version="1.0"?>
<VTKFile type="UnstructuredGrid"  version="0.1"  >
<UnstructuredGrid>
<Piece  NumberOfPoints="1407" NumberOfCells="2594">
<Points>
<DataArray  type="Float64"  NumberOfComponents="3"  format="ascii">0 1.5 0  0 0 0  1 0 0  1 1.5 0  0.35 0.65 0  0.65 0.65 0  0.65 0.35 0  0.35 0.35 0  0.35 0.96 0  0.65 0.96 0  0.65 0.66 0  0.35 0.66 0  0.5 0 0  0 0.75 0  1 0.75 0  0 0.375 0  1 0.375 0  0.5 1.5 0  0 1.125 0  1 1.125 0  0.25 1.5 0  0.75 1.5 0  0.375 1.243888888888889 0  0.7401086956521739 1.222572463768116 0  0.25 0 0  0.75 0 0  0 1.3125 0  0 0.1875 0  1 0.1875 0  1 0.5625 0  0.1848214285714286 0.5 0  0.8174107142857143 0.4687500000000001 0  1 0.9375 0  0 0.9375 0  0.65 0.8100000000000001 0  0.35 0.8100000000000001 0  0.5 0.96 0  0.1766238683127572 1.21875 0  0.822642375995101 1.047501020616452 0  0.7939338235294118 0.2018382352941176 0  0.1691964285714286 0.2812500000000001 0  0.5 0.35 0  0.375 0.1535714285714286 0  0.6048949210808516 0.1621878909653493 0  1 1.3125 0  0 0.5625 0  0.1640714285714286 0.84375 0  0.1762692062917373 1.03105178667178 0  0.8359285714285715 0.84375 0  0.5621023945474183 1.311129826715227 0  0.8371875000000001 0.655 0  0.5750000000000001 1.127791931175133 0  0.1541601069440535 0.6706504438581293 0  0.125 0 0  0.1472250502829418 1.376616599622744 0  0.875 1.5 0  0.8125 1.358881548190251 0  0.5 0.66 0  0.5 0.65 0  0.65 0.5 0  0.35 0.5 0  0.2276848339686157 0.1458213145438177 0  0.3085985630593322 1.106691146327673 0  0.875 0 0  0.375 1.5 0  0.2909251682594172 1.361414428952837 0  0.8714485246915223 1.177499722658573 0  0.9029912728918508 0.28125 0  0.444309425661123 1.085550489893153 0  0.625 1.5 0  0.4346130758247274 1.371944444444444 0  0.7830629592613936 0.3397919143065746 0  0.6968622084092321 1.081604367811559 0  0.6866668860416248 1.338331850546329 0  0.375 0 0  0.625 0 0  0.125 1.5 0  0.7571283548077703 0.748845218306158 0  0.7497099213182619 0.5701137366539539 0  0.2558692064407742 0.7350000000000001 0  0.2964140829763539 0.2433747793917957 0  0.487623348851111 0.2198890377440982 0  0.1158974935208339 0.1778872531899508 0  0.4913641269692496 1.214030859276334 0  0.8920530408454942 0.1240479727696705 0  1 1.40625 0  0 0.46875 0  0.1214285714285714 0.3945950255102041 0  0.2365058822631193 0.3763548342152661 0  0.2456138461425831 0.5990025036099956 0  0.4770810139768792 0.1090028186854997 0  0.7324133588990726 0.885 0  0.2375677858915855 0.9330117235698416 0  0.6875 0.09008767814013303 0  0 0.09375 0  0.8844805807868602 0.9492246725472735 0  1 1.03125 0  0.5834655682110902 0.2666566655049612 0  0.6885561374079259 0.2337813098434742 0  0.7916743749039853 0.09563647865846153 0  0.8786016838893559 0.3833986205581952 0  1 0.46875 0  0.65 0.425 0  0.8882832664189577 0.5553994528860708 0  0.2722741679154312 1.259236683937199 0  0.1131818206155013 1.125020434123634 0  0 1.03125 0  0 1.21875 0  0.09912013537260758 1.285987520622005 0  0.08808200402380065 0.984375 0  0.6077660994283478 1.400831062100319 0  0.6413197405572436 1.247181014921799 0  0.3125 0.07678571428571428 0  0.2115509529508847 1.12290046025129 0  0.08712689786059351 0.515625 0  0.7408460906408083 0.9948227293752155 0  0.9102138337299758 1.088784707834322 0  0.7784947248552031 1.133678645592879 0  0 0.28125 0  0.9121087256808306 1.359375 0  0.3955440542548779 0.2603334657204607 0  0 1.40625 0  0.8275600060378382 1.263506047310984 0  0.1028654383262875 0.7604209991457549 0  0 0.84375 0  0.2594390176916248 0.8401147857472698 0  0.8910305066923369 0.7497383215897779 0  1 0.84375 0  1 0.65625 0  0 0.65625 0  0.2765148843081602 1.018447946771745 0  1 0.09375 0  1 0.28125 0  1 1.21875 0  0.5286689024592001 1.047843308650617 0  0.5661821483107946 0.0750489168121735 0  0.9201380862399812 1.265625 0  0.7403885126828781 0.660020326953331 0  0.1513301897243842 0.09052383276278524 0  0.5171646806951644 1.410513970235298 0  0.6570217268909305 1.160344078183039 0  0.7394087923884696 1.410909707163877 0  0.1597324233372193 0.5835719083714564 0  0.08092896858221162 0.6222466888400674 0  0.7406947469126506 0.420129886084974 0  0.3854925570702976 1.154143195318199 0  0.906617561036541 0.4680945575311649 0  0.6172348635009329 1.042458313459878 0  0.2141683776785341 1.322634117574637 0  0.08459821428571429 0.2594498612289851 0  0.2674107142857143 0.461898043123306 0  0.4777250723534856 1.298283651036468 0  0.0820357142857143 0.8902640971599273 0  0.8067693018529518 0.9210846151560834 0  0.9179642857142858 0.8698994370782795 0  0.9184720779953784 0.6714727786019703 0  0.8125 1.5 0  0.3592454149918304 1.414762375733811 0  0.08273791947095149 1.203458670678841 0  0.1560659569667871 0.9252301420776499 0  0.1875 1.5 0  0.2241548454996505 1.417032255526303 0  0.7569162437644694 1.300547627237065 0  0.8756778333016498 0.2041689303975273 0  0.425 0.96 0  0.3683938696687017 1.044379450572799 0  0.3115202260566392 1.187984438803453 0  0.9375 0 0  0.0625 1.5 0  0.0625 0 0  0.9264280023005735 1.438362336400765 0  0.06564386585944831 1.359375 0  0.178795192836391 0.7442669694401668 0  0.84375 1.429440774095126 0  0.7242268907236241 0.1616684353669041 0  0.5713544697069139 1.207931597011395 0  0.4022451707491219 0.07678571428571428 0  0.07606434792255712 0.1108647246227404 0  0.425 0.65 0  0.425 0.66 0  0.575 0.66 0  0.575 0.65 0  0.7470006991683099 0.4950137159009523 0  0.35 0.885 0  0.575 0.35 0  0.35 0.7350000000000001 0  0.65 0.575 0  0.65 0.7350000000000001 0  0.35 0.425 0  0.35 0.575 0  0.425 0.35 0  0.575 0.96 0  0.65 0.885 0  0.09374999999999999 1.430677538716259 0  0.3013424169843079 0.1496963715576231 0  0.1849438256048778 0.2077067101869471 0  0.2388424169843079 0.07291065727190887 0  0.07173640644322976 1.059854456790638 0  0.06419661411279236 0.6957315727649066 0  0.2825570108498748 0.3171166010622856 0  0.6875 1.5 0  0.3310674883674913 1.301295954813875 0  0.9454023739255069 0.796875 0  0.2864246282817768 0.5375 0  0.4375 1.5 0  0.06852058805486823 0.3364225748984086 0  0.05473106199790181 0.421875 0  0.7135929719652974 0.3065923478857669 0  0.8888550555744522 1.020570544533449 0  0.407532026105657 1.306647883491885 0  0.5625 1.5 0  0.8212431665208667 0.5839139336079717 0  0.8449063139999805 1.113303479705628 0  0.9364744114754 1.153086685838695 0  0.8050610353937171 1.197823767658308 0  0.9460861604217302 0.9812544539636752 0  0.3125 1.5 0  0.5395508056360561 0.1390491298940069 0  0.8250510836080026 0.2736954572484136 0  0.7668593251606742 0.8209321371112722 0  0.2424812269132693 1.196392022067605 0  0.4625809056443893 0.2879153087548867 0  0.5074314933609925 1.113549617627778 0  0.4625 1.018492692938468 0  0.2265244654934102 0.6688274228040376 0  0.9413055286111207 0.6035716882072499 0  0.1875 0 0  0.2919459712016241 1.430528396467327 0  0.9416388533356789 0.2241755975156681 0  0.9514956364459254 0.328125 0  0.1856644334506817 0.4277275857546619 0  0.8242412700826193 0.7250273480299602 0  0.8053784643420075 0.4029014938645147 0  0.9464872489384214 0.5220448903410788 0  0.2309291709733608 0.2560108789995744 0  0.04721180949295774 0.796875 0  0.9349436788066534 0.06941254746223105 0  0.1288399026521283 0.46320589278353 0  0.6737967094059217 1.403137079691092 0  0.7518314060180149 0.2527335563443291 0  1 0.421875 0  0.4237656699886009 0.1995451747809214 0  0.553676710930477 0.2061139150875385 0  0.6797195785728654 1.018378818678655 0  0.7613667893807466 1.070507292292808 0  0.1631785834210849 1.439674026820779 0  0.4540144981165559 1.156533259031902 0  0.4213304861750082 1.43630421090153 0  0.8625085973885606 1.317901263313451 0  0.6273905302568502 1.310966158584549 0  0.8046776547721317 0.9855519749551188 0  0.940631785081856 0.3984375 0  0.6999676548244024 1.272023881363465 0  0.8542595457271082 0.0660473565678811 0  0.1043836826697193 0.8234485419017311 0  0.2101468681538403 0.7997381985269827 0  1 0.140625 0  0.8361926167440458 0.1543650292605365 0  0.4375 0 0  0.5625 0 0  0.3125 0 0  0.6875 0 0  0.9375 1.5 0  0.8125 0 0  0.2864754521352191 0.6476955015681203 0  0.6322970047049524 1.103031773484618 0  0.7209532103538135 1.161565948317914 0  0.7017180067223532 0.6105745033213139 0  0.2914626200609601 0.4048544181949066 0  0.6996123697590465 0.7725000000000001 0  0.231159419371175 1.062667568780693 0  0.1316408306563898 0.3321607570435455 0  0.5219434332956034 0.2711458164626565 0  0.6467041741612273 0.2844016514004487 0  0.2995462702051331 0.9225 0  0.6291631828128607 0.06383582160471275 0  0.8442223102136631 0.33225889816149 0  0.7003913795738027 0.5342940179879695 0  0.1015914133185109 0.05589991020659692 0  0.1637045917320031 1.282145618966898 0  0.2209883146839276 0.3167727253696408 0  0.3029346032203871 0.7725000000000001 0  0.5262767027548977 1.262912953352655 0  0.4292200831019913 1.213519056511027 0  0.0491162294897297 1.253023057223217 0  0.7067688852543174 0.7114634584135495 0  0.6974370307130239 0.4614800360643829 0  0.6644963707081416 0.1471028116907735 0  0.2620494584724848 0.1945980469678067 0  0.3525845718815589 0.2132424437773113 0  0.3378418327522833 0.2893324814869065 0  0.8406284803721253 0.7833507443827437 0  0.4922425048086627 1.356227010933077 0  0.3658763125187799 1.352883654261354 0  0.708610094744571 0.8309083836866393 0  0.7293871992435489 0.3628256245704534 0  0.1685954763545719 0.1507135716553993 0  0.05670661476910926 0.1677176798381019 0  0.2095563539353029 0.552977558900388 0  0.8860298130099459 0.6227735440522468 0  0.8650085945175792 0.8942759547053409 0  0.8894766033391922 0.81752852889196 0  0.46875 0.05034024765419566 0  0.799037940308298 0.527007148879893 0  0.2222243267665793 0.991601574338417 0  0.2006969871961888 0.8884818247236804 0  0.7869100209624815 1.44646667070636 0  0.9364909965206036 0.9244491479145617 0  0.05658672689496352 1.148181569262383 0  0.53166669626361 1.165973461661098 0  0.1822077846795723 0.3586844811385232 0  0.9419619937199086 1.211338142823728 0  1 0.703125 0  0.9455712217622753 0.7265625 0  0.1303148549620776 1.068361279539146 0  0.1349739919492207 1.17860568705
[...]
<PointData  Vectors="f_679"> 
<DataArray  type="Float64"  Name="f_679"  NumberOfComponents="3" format="ascii">-1.3336043824929828e-03 1.2141662950115473e-03 0.0000000000000000e+00  -1.5016128299924902e-01 -1.4460547925020817e-01 0.0000000000000000e+00  1.3283810271669516e-01 -1.7312139290796491e-01 0.0000000000000000e+00  1.1930267709196107e-03 1.5748849967909672e-03 0.0000000000000000e+00  -6.8053123633099144e+00 1.6491710907427652e+01 0.0000000000000000e+00  5.1237466392052431e+00 2.1530657174783112e+01 0.0000000000000000e+00  3.1266934594013795e+00 -2.9146182946045962e+00 0.0000000000000000e+00  -3.6634929171233779e+00 -2.5316540674228367e+00 0.0000000000000000e+00  1.1072448780625820e-01 -2.5682552016400899e-02 0.0000000000000000e+00  -1.4840197475173778e-01 -7.1087894794225059e-04 0.0000000000000000e+00  -2.9724999587877652e+00 1.3228481260136467e+01 0.0000000000000000e+00  2.7702622820997984e+00 2.2250951617157099e+01 0.0000000000000000e+00  -1.0257107608000490e-02 -2.3211362059185592e+00 0.0000000000000000e+00  -7.6666542142823901e-01 1.0604443763960789e-01 0.0000000000000000e+00  8.4665305177657024e-01 1.2094794101635065e-01 0.0000000000000000e+00  -1.9575022839656719e+00 -7.6967417460006043e-02 0.0000000000000000e+00  2.0233436864579928e+00 -5.4386233994713117e-02 0.0000000000000000e+00  -6.2257779647160510e-06 9.9606309660002050e-03 0.0000000000000000e+00  -4.1073188392563402e-02 7.3421717385443643e-03 0.0000000000000000e+00  4.7723451467964792e-02 1.0686922240441148e-02 0.0000000000000000e+00  -3.3685964069817746e-04 9.3206199838855031e-03 0.0000000000000000e+00  3.2773900079505810e-04 9.3567446210546870e-03 0.0000000000000000e+00  4.1315378147120316e-03 1.0290782809100356e-02 0.0000000000000000e+00  -2.3688303455168153e-05 1.8224667568962075e-02 0.0000000000000000e+00  -1.3306111104811352e-01 -1.5540248576932894e+00 0.0000000000000000e+00  1.0793815624401382e-01 -1.5334821505035465e+00 0.0000000000000000e+00  -1.2208753782675504e-02 2.1669173197262407e-03 0.0000000000000000e+00  -1.1007564263809155e+00 -1.2188712580500288e-01 0.0000000000000000e+00  1.1467240132706988e+00 -1.3220581649139024e-01 0.0000000000000000e+00  1.8520670855179637e+00 9.4012208326683055e-02 0.0000000000000000e+00  -2.7914245200436629e+00 2.8265133841091361e-01 0.0000000000000000e+00  2.8881091647849289e+00 1.0977205780686321e-01 0.0000000000000000e+00  2.0978972471197457e-01 3.7927941767189027e-02 0.0000000000000000e+00  -1.9297282413533653e-01 2.9568899891855419e-02 0.0000000000000000e+00  -9.7674198906653420e-01 2.7350310973414282e-01 0.0000000000000000e+00  9.8817414812868398e-01 2.9906457426774657e-01 0.0000000000000000e+00  -2.9726752462951682e-06 -2.6256863068314207e-02 0.0000000000000000e+00  -7.8900652572931156e-03 2.1118264541854708e-02 0.0000000000000000e+00  1.1634687236958242e-02 7.6186869418765679e-02 0.0000000000000000e+00  1.4057366007750380e+00 -1.2745965316584691e+00 0.0000000000000000e+00  -1.9135017369228646e+00 -9.3951902596859393e-01 0.0000000000000000e+00  1.2770531918919720e-02 -3.5790477138749162e+00 0.0000000000000000e+00  -5.6668092589886898e-01 -2.4455564405084926e+00 0.0000000000000000e+00  5.0990149481954572e-01 -2.5627898185950357e+00 0.0000000000000000e+00  1.2156119865989764e-02 1.6292050098530096e-03 0.0000000000000000e+00  -1.8184380425246869e+00 1.1261290722220031e-01 0.0000000000000000e+00  -1.3277100214410306e-01 4.6778457018897884e-01 0.0000000000000000e+00  -9.8000891811773679e-03 8.6212278976913026e-02 0.0000000000000000e+00  1.0324924709942299e-01 4.6311391128421620e-01 0.0000000000000000e+00  -1.1346940854852616e-03 9.3551703789190952e-03 0.0000000000000000e+00  1.4742097259379974e+00 1.1670290551810307e+00 0.0000000000000000e+00  -1.0669973247586397e-02 -4.5133274319644702e-04 0.0000000000000000e+00  -1.2156903041339759e+00 1.1940187941415477e+00 0.0000000000000000e+00  -1.4314324526455380e-01 -7.7000083725682611e-01 0.0000000000000000e+00  -4.7953464108330592e-03 8.0740860008165424e-03 0.0000000000000000e+00  1.0745509555815486e-03 6.0412521445007989e-03 0.0000000000000000e+00  3.5220274754731245e-03 1.0875200262775284e-02 0.0000000000000000e+00  4.8120015278525393e-07 9.9999988610143546e+01 0.0000000000000000e+00  2.3201500814784760e-07 9.9999988445536246e+01 0.0000000000000000e+00  4.1927464132761134e+00 1.8424844066062607e-01 0.0000000000000000e+00  -4.1989710619961356e+00 2.5702049562841545e-01 0.0000000000000000e+00  -9.1957218361150206e-01 -1.5151261916756478e+00 0.0000000000000000e+00  2.1241017062438961e-02 2.2368656991054326e-02 0.0000000000000000e+00  2.0713202754980797e-01 -7.9583088380242506e-01 0.0000000000000000e+00  4.2422227475421886e-06 1.0084881520347205e-02 0.0000000000000000e+00  -4.4521317049779998e-04 1.1157830254656125e-02 0.0000000000000000e+00  1.8266898366273585e-02 2.2215285046963476e-02 0.0000000000000000e+00  1.6929450142515194e+00 -5.3128307921706408e-01 0.0000000000000000e+00  9.5423518373189634e-03 -9.0449672358338517e-03 0.0000000000000000e+00  -1.4012411278937003e-05 1.0078899838900035e-02 0.0000000000000000e+00  4.1076846520856519e-04 9.9392418603009951e-03 0.0000000000000000e+00  2.5348314768135283e+00 -1.1615608224843503e+00 0.0000000000000000e+00  -3.0445922449724647e-02 2.2460326496447792e-02 0.0000000000000000e+00  -4.8353839947340796e-05 1.1609017249305163e-02 0.0000000000000000e+00  -8.5112426574189853e-02 -2.0956847148833919e+00 0.0000000000000000e+00  7.5352534227337287e-02 -2.1157903881001308e+00 0.0000000000000000e+00  -1.1769280522148495e-03 6.3260957226502334e-03 0.0000000000000000e+00  -1.1982097299029459e-01 1.3624142145746259e+00 0.0000000000000000e+00  3.3279179588230154e+00 1.4884838756254914e+00 0.0000000000000000e+00  3.6002037019890015e-01 1.6441005120443826e+00 0.0000000000000000e+00  -1.5637024743291215e+00 -2.2267251869781166e+00 0.0000000000000000e+00  -1.0916870079209229e-01 -2.9993099624450883e+00 0.0000000000000000e+00  -1.0477082184865862e+00 -6.8789471748126951e-01 0.0000000000000000e+00  6.8600433674302814e-04 4.3770102068372571e-03 0.0000000000000000e+00  7.6355154527777835e-01 -7.3125106341669466e-01 0.0000000000000000e+00  5.2088220014732739e-03 1.6215444400531410e-03 0.0000000000000000e+00  -2.0578611042997244e+00 2.9056245361657306e-02 0.0000000000000000e+00  -2.2821331172747135e+00 -2.2564122469269773e-01 0.0000000000000000e+00  -2.9647603581346997e+00 -7.8870460567161416e-01 0.0000000000000000e+00  -2.8915126892531164e+00 2.0478082037530565e+00 0.0000000000000000e+00  -6.4456423733563306e-02 -2.4660247538753866e+00 0.0000000000000000e+00  -2.4953133832955091e-01 2.4861333245764969e-01 0.0000000000000000e+00  1.1662642666297246e-01 1.9331939624537489e-01 0.0000000000000000e+00  4.5045823072667279e-01 -1.9903148359684308e+00 0.0000000000000000e+00  -5.7533924657672042e-01 -1.4249772217638598e-01 0.0000000000000000e+00  1.0504265438116518e-01 1.5697119897401887e-01 0.0000000000000000e+00  1.0227310785472557e-01 2.0512147664953590e-02 0.0000000000000000e+00  5.9135571176328872e-01 -3.4144429862691155e+00 0.0000000000000000e+00  1.4502918291030087e+00 -2.3639702639965279e+00 0.0000000000000000e+00  6.0126925601237846e-01 -1.2884500974157367e+00 0.0000000000000000e+00  2.2555445312393063e+00 -2.6320552985327234e-01 0.0000000000000000e+00  2.0487530407251624e+00 3.4836420782930005e-02 0.0000000000000000e+00  4.2165233329870970e+00 -1.7150901563781909e-01 0.0000000000000000e+00  2.0340596083740268e+00 4.7507586589886530e-01 0.0000000000000000e+00  1.0731770817945603e-03 1.6185210536754247e-02 0.0000000000000000e+00  -3.0741082840307007e-02 3.3580065593392480e-02 0.0000000000000000e+00  -9.9735655483718835e-02 2.7292343022161974e-02 0.0000000000000000e+00  -2.6284184570033637e-02 5.0881466716992561e-03 0.0000000000000000e+00  -1.1314142818635266e-02 1.0212561573074890e-02 0.0000000000000000e+00  -1.0175843519440517e-01 9.3745696197984674e-02 0.0000000000000000e+00  -3.0611238189438980e-04 1.0188293384102286e-02 0.0000000000000000e+00  -3.6299769209198330e-03 1.1547067931184022e-02 0.0000000000000000e+00  -3.6867805506791601e-01 -1.9400590597725491e+00 0.0000000000000000e+00  3.0735587373059070e-03 3.8384595792007370e-02 0.0000000000000000e+00  -2.1209214179549694e+00 2.2116213415271907e-01 0.0000000000000000e+00  -8.7961374480401103e-02 1.0059347782798672e-01 0.0000000000000000e+00  4.4565809118555885e-02 3.9982832017481248e-02 0.0000000000000000e+00  -2.8790176057827098e-03 3.6092359143714163e-02 0.0000000000000000e+00  -1.6677771637113246e+00 -1.1589460341130912e-01 0.0000000000000000e+00  7.3835303956145092e-03 6.1935137495783901e-03 0.0000000000000000e+00  -7.7745873039547786e-01 -3.2010222414523861e+00 0.0000000000000000e+00  -5.3035430326249843e-03 1.8626505405222257e-03 0.0000000000000000e+00  6.3790431761265023e-03 1.5556222446899814e-02 0.0000000000000000e+00  -6.7884219272655244e-01 5.0329807637848289e-01 0.0000000000000000e+00  -4.4181392619389409e-01 6.5041521998709398e-02 0.0000000000000000e+00  2.9936409757603810e-01 4.9973815885743039e-01 0.0000000000000000e+00  6.5332317107480520e-01 5.3703057943372534e-01 0.0000000000000000e+00  4.5006540798812811e-01 4.9434794316684377e-02 0.0000000000000000e+00  1.3164007579467372e+00 1.3605799502619428e-01 0.0000000000000000e+00  -1.3568829025076419e+00 1.4805526667658592e-01 0.0000000000000000e+00  6.2705091071466490e-02 5.4103044241953821e-02 0.0000000000000000e+00  5.2919562688838051e-01 -1.4711974044738782e-01 0.0000000000000000e+00  1.6295275281831543e+00 -1.3581910435814343e-01 0.0000000000000000e+00  2.4260669163610419e-02 4.2594670608287191e-03 0.0000000000000000e+00  -5.7153777594754641e-03 -1.5717503937484917e-02 0.0000000000000000e+00  1.2674948614507284e-01 -2.3655865170863266e+00 0.0000000000000000e+00  1.4718494386720618e-02 8.8847812544792151e-03 0.0000000000000000e+00  1.2512284927463688e+00 3.7763800193639945e+00 0.0000000000000000e+00  -5.8990195015781555e-01 -9.8413279677074306e-01 0.0000000000000000e+00  -7.0732922355061278e-05 9.8500533875625160e-03 0.0000000000000000e+00  -1.2650636182833179e-02 1.2272716740930853e-02 0.0000000000000000e+00  1.1372122761715729e-03 1.0207654242486526e-02 0.0000000000000000e+00  -2.1180181993561837e+00 8.4359710681827049e-01 0.0000000000000000e+00  -1.5469662597330907e+00 4.9982522383239592e-01 0.0000000000000000e+00  3.3495722165775428e+00 -2.6758359107088892e-01 0.0000000000000000e+00  1.0733594396173919e-02 7.5102331000289875e-03 0.0000000000000000e+00  2.2441860479871041e+00 8.1183363817640131e-02 0.0000000000000000e+00  -3.6131929492463473e-02 -1.3303439967427839e-02 0.0000000000000000e+00  -3.0955871249203257e-03 1.2779750594872718e-02 0.0000000000000000e+00  -1.6237246475279856e+00 -4.4934987853802044e-01 0.0000000000000000e+00  -3.6377452116023687e+00 9.7553654648405513e-02 0.0000000000000000e+00  8.1175866189515673e-04 8.6838357630561573e-03 0.0000000000000000e+00  -2.2828929279926163e-01 2.0905251999458585e-01 0.0000000000000000e+00  -1.8973413867678192e-03 2.4087468533657733e-01 0.0000000000000000e+00  3.2060171242965108e-01 1.9924066936537607e-01 0.0000000000000000e+00  1.2841368595342351e+00 4.7050887186902618e-01 0.0000000000000000e+00  7.8940316426079511e-04 8.0854552526391666e-03 0.0000000000000000e+00  1.4394038213866500e-05 1.0268088750144353e-02 0.0000000000000000e+00  -2.2180463446358531e-02 1.4230809241330994e-02 0.0000000000000000e+00  -4.4814195190203472e-02 2.3069418906458911e-01 0.0000000000000000e+00  -5.0911292781348103e-04 8.3217040805563594e-03 0.0000000000000000e+00  -1.7949548167260560e-03 9.6379947047414670e-03 0.0000000000000000e+00  2.2365691884993085e-03 1.4163866341798443e-02 0.0000000000000000e+00  1.3427838978082489e+00 -6.9396126181949302e-01 0.0000000000000000e+00  7.9373184529826953e-03 -3.6859865149208582e-02 0.0000000000000000e+00  4.2512892964406968e-02 -1.2386525307452465e-02 0.0000000000000000e+00  7.9437484937698172e-03 1.6973929382654681e-02 0.0000000000000000e+00  1.7520095037483358e-01 -3.9446385543638929e-01 0.0000000000000000e+00  -1.4179201087208607e-03 3.0939800804787869e-03 0.0000000000000000e+00  -1.3834671874289320e-01 -3.5102240098023318e-01 0.0000000000000000e+00  2.9814277408042908e-03 4.0845006658715077e-03 0.0000000000000000e+00  -7.2046733683700671e-03 4.6861841919090298e-03 0.0000000000000000e+00  -5.2027739226428982e-01 1.0468347121277519e+00 0.0000000000000000e+00  2.3449330543401695e-03 7.3332406710441018e-03 0.0000000000000000e+00  9.8627422650981655e-01 -1.9088127914590312e+00 0.0000000000000000e+00  -4.4966377533490719e-03 6.6079373007306109e-03 0.0000000000000000e+00  -2.0839319246581425e-01 -2.2495167137920169e+00 0.0000000000000000e+00  -7.1098355924723855e-01 -5.0516414623200856e-01 0.0000000000000000e+00  -1.7936711005791636e-04 9.9969263540735071e+01 0.0000000000000000e+00  2.5678055537821110e-04 9.9986084994629138e+01 0.0000000000000000e+00  1.2466257560207774e-03 9.9969914536191013e+01 0.0000000000000000e+00  8.2467313882037560e-04 9.9986339596643262e+01 0.0000000000000000e+00  3.3337070403588678e+00 3.9139865130243034e-01 0.0000000000000000e+00  4.1721571314157385e-01 6.1568024082025691e-02 0.0000000000000000e+00  3.5377302031327740e-01 -3.8584455690008008e+00 0.0000000000000000e+00  2.5542154452972361e+00 7.3807927623549585e-01 0.0000000000000000e+00  6.1304095646245020e+00 1.4740599779760479e+00 0.0000000000000000e+00  -2.9556725315362704e+00 1.2935037633332842e+00 0.0000000000000000e+00  -4.1258528912595720e+00 -1.5660434077756297e-01 0.0000000000000000e+00  -5.9347120418932988e+00 1.4588115741971741e+00 0.0000000000000000e+00  -2.7878343353367907e-01 -3.8862256261879109e+00 0.0000000000000000e+00  -1.3273087852115523e-02 -3.6995023856156641e-02 0.0000000000000000e+00  -4.2188274598109643e-01 1.1207180857958089e-01 0.0000000000000000e+00  -3.3285995533587909e-03 4.5811014439203551e-03 0.0000000000000000e+00  -7.9600190078586686e-01 -2.0270239020351468e+00 0.0000000000000000e+00  -1.3352767402523622e+00 -1.1864763135086023e+00 0.0000000000000000e+00  -4.4365850725964806e-01 -1.4834714305823173e+00 0.0000000000000000e+00  -6.9246342003039987e-02 4.2523180986288961e-02 0.0000000000000000e+00  -1.1245114568807189e+00 3.5800587704504111e-01 0.0000000000000000e+00  -2.6951923428186064e+00 -1.9960003345911763e+00 0.0000000000000000e+00  1.2282622835863995e-04 9.9180508384712537e-03 0.0000000000000000e+00  1.3319549794856792e-03 1.1690774898750539e-02 0.0000000000000000e+00  5.6406223691059554e-01 2.3957056259012288e-01 0.0000000000000000e+00  -3.9031091827226039e+00 8.5174255387553510e-01 0.0000000000000000e+00  2.5650415441612762e-05 1.0005634360020683e-02 0.0000000000000000e+00  -1.9492439679692897e+00 -2.5077605506557160e-01 0.0000000000000000e+00  -2.1509592087160074e+00 -4.2381510161119795e-02 0.0000000000000000e+00  2.7778425227996313e+00 -2.3014246949047870e+00 0.0000000000000000e+00  5.6104974314629845e-02 8.5321597863308798e-02 0.0000000000000000e+00  1.3541612225250060e-03 9.9220676336049859e-03 0.0000000000000000e+00  -2.9583957234735299e-05 1.0023135057546900e-02 0.0000000000000000e+00  2.1504123518533880e+00 1.0311071146837181e+00 0.0000000000000000e+00  1.4560755629916496e-02 4.5243173639304995e-02 0.0000000000000000e+00  3.4510705758248363e-02 1.9991214281286286e-02 0.0000000000000000e+00  6.7932166292096179e-03 2.5108501884881403e-02 0.0000000000000000e+00  1.3117525516235920e-01 6.3152538720256418e-02 0.0000000000000000e+00  -1.4532166023235592e-04 9.9623038929266047e-03 0.0000000000000000e+00  1.5931477971291305e-01 -2.5837703308649713e+00 0.0000000000000000e+00  1.8317832139392762e+00 -1.0199599409577833e+00 0.0000000000000000e+00  -2.0247614015931625e-01 7.2557145126607514e-01 0.0000000000000000e+00  6.6294310462679349e-04 2.1805252745038257e-02 0.0000000000000000e+00  -2.0629317649619008e-01 -3.4143446037161205e+00 0.0000000000000000e+00  -1.4368862387633540e-03 -4.7587321759133185e-03 0.0000000000000000e+00  4.5402510076268015e-03 -2.0706146248663192e-02 0.0000000000000000e+00  -1.0133936146975937e+00 2.1581436392480260e+00 0.0000000000000000e+00  1.6780857354094403e+00 3.3555482372543033e-01 0.0000000000000000e+00  -1.3339224866313254e-01 -1.1989636649349467e+00 0.0000000000000000e+00  -4.7518779555798984e-04 1.0178966476837222e-02 0.0000000000000000e+00  1.3637755386045711e+00 -3.6005179023850992e-01 0.0000000000000000e+00  1.8768710665422139e+00 -1.9569163698608799e-01 0.0000000000000000e+00  -2.7412695009428329e+00 -1.5589408778427952e-01 0.0000000000000000e+00  5.4864942933161986e-01 1.1756112389581490e+00 0.0000000000000000e+00  2.7975938544031100e+00 -4.1355532766993353e-01 0.0000000000000000e+00  2.0134331301166255e+00 1.4280918381257182e-01 0.0000000000000000e+00  -1.8821565076978315e+00 -1.5021575410096788e+00 0.0000000000000000e+00  -5.5365803378903722e-01 1.7989153714241224e-01 0.0000000000000000e+00  4.3096469947033345e-01 -4.4988380755414781e-01 0.0000000000000000e+00  -2.3466143184987986e+00 4.7017578041476188e-02 0.0000000000000000e+00  1.8979728759775693e-04 1.0577107630256778e-02 0.0000000000000000e+00  1.8108168942416036e+00 -1.6685092841546907e+00 0.0000000000000000e+00  2.0511797461238364e+00 -2.7347387391508441e-02 0.0000000000000000e+00  -4.0457983237185730e-01 -2.8310246915517729e+00 0.0000000000000000e+00  3.6483127052447689e-01 -2.9300152135830322e+00 0.0000000000000000e+00  -8.2694407245259269e-02 2.5976765031058145e-03 0.0000000000000000e+00  -3.0583104879474209e-02 5.6183872935810494e-02 0.0000000000000000e+00  -2.1050673858492687e-03 7.6684813256558734e-03 0.0000000000000000e+00  5.1898280802590074e-03 7.5153584280993394e-04 0.0000000000000000e+00  1.1931305600967623e-04 1.0034747389812393e-02 0.0000000000000000e+00  8.1606360702823309e-03 1.0275847867845819e-02 0.0000000000000000e+00  -1.5324072069715137e-03 1.0607460561841524e-02 0.0000000000000000e+00  -1.8238914617388496e-02 1.4162048680474312e-01 0.0000000000000000e+00  2.0769614721033252e+00 -1.1598935962155793e-01 0.0000000000000000e+00  -1.6640298931909067e-03 1.3859332464270046e-02 0.0000000000000000e+00  4.3989459647414841e-01 -8.7774311822995477e-01 0.0000000000000000e+00  -3.6080566851512996e-01 3.4941975255697749e-01 0.0000000000000000e+00  5.4090899543394175e-02 8.5789091435594789e-01 0.0000000000000000e+00  9.7195519455709078e-01 -1.4720923424400975e-01 0.0000000000000000e+00  9.7460900065193545e-01 -1.0616372046884757e+00 0.0000000000000000e+00  -6.2242998701242058e-02 -2.2669727805005082e+00 0.0000000000000000e+00  4.3298559218819678e-02 -2.2541914382530255e+00 0.0000000000000000e+00  -1.0960815745691475e-01 -1.8801853925123719e+00 0.0000000000000000e+00  1.1909168876149108e-01 -1.8736542622909753e+00 0.0000000000000000e+00  1.2371346582229637e-03 3.4733121020292250e-03 0.0000000000000000e+00  1.7123558801693189e-01 -1.1557945351647305e+00 0.0000000000000000e+00  -1.9673095362791375e+00 4.3199857172888327e+00 0.0000000000000000e+00  -2.1563317818893576e-02 5.2085832467875758e-03 0.0000000000000000e+00  -9.2750637490167341e-03 2.2827349857118952e-02 0.0000000000000000e+00  4.6906899677052483e+00 3.2659847625092446e+00 0.0000000000000000e+00  -3.8592295841479785e+00 -5.8320004674090387e-01 0.0000000000000000e+00  -1.0292000202815115e+00 8.8504546705791853e-01 0.0000000000000000e+00  1.9997573274054697e-02 5.5203776591412290e-02 0.0000000000000000e+00  -2.0610061840871805e+00 -5.5643973429237037e-01 0.0000000000000000e+00  1.2881084856822758e-01 -3.3466872877136473e+00 0.0000000000000000e+00  1.6554597575554864e+00 -3.3857577763639490e+00 0.0000000000000000e+00  2.6776941841617941e-01 1.3663377868699489e-01 0.0000000000000000e+00  2.2653710624357218e-01 -2.1247929043905232e+00 0.0000000000000000e+00  2.1893813819509833e+00 -6.7411386942940099e-01 0.0000000000000000e+00  4.2866620265564626e+00 6.9658869556187453e-01 0.0000000000000000e+00  -3.8691117121014246e-01 -6.2013274910874683e-01 0.0000000000000000e+00  -7.3212056529307224e-03 1.3069473162304772e-02 0.0000000000000000e+00  -2.4713584701889197e+00 -1.2160200401325998e+00 0