<?xml version="1.0"?>
<VTKFile type="UnstructuredGrid"  version="0.1"  >
<UnstructuredGrid>
<Piece  NumberOfPoints="1442" NumberOfCells="2689">
<Points>
<DataArray  type="Float64"  NumberOfComponents="3"  format="ascii">0 1.5 0  0 0 0  1 0 0  1 1.5 0  0.35 0.65 0  0.65 0.65 0  0.65 0.35 0  0.35 0.35 0  0.5866025403784438 1.25 0  0.6 1.2 0  0.5866025403784438 1.15 0  0.55 1.113397459621556 0  0.5 1.1 0  0.45 1.113397459621556 0  0.4133974596215561 1.15 0  0.4 1.2 0  0.4133974596215561 1.25 0  0.45 1.286602540378444 0  0.5 1.3 0  0.55 1.286602540378444 0  0.5 0 0  0 0.75 0  1 0.75 0  0.5 1.5 0  0 0.375 0  1 0.375 0  0 1.125 0  1 1.125 0  0.7720072424407859 0.9279927575592141 0  0.2369660147341462 0.9168810515695116 0  0.75 1.5 0  0.25 1.5 0  0.25 0 0  0.75 0 0  0.5 0.85 0  0 1.3125 0  1 1.3125 0  0 0.1875 0  1 0.1875 0  0.8151785714285714 0.5 0  0 0.5625 0  0.7912795060263956 1.294622674701861 0  0.2063122081232003 1.278693406660268 0  0.1825892857142857 0.46875 0  0.7939338235294118 0.2018382352941176 0  0.2060661764705882 0.2018382352941177 0  0.5 0.35 0  0.6048949210808516 0.1621878909653493 0  0.3951050789191484 0.1621878909653493 0  0 0.9375 0  1 0.5625 0  1 0.9375 0  0.8141972910020407 1.109596487353587 0  0.8300504758824617 0.6823233344113842 0  0.1858106595831645 0.7378373085410758 0  0.238295786310014 1.099198431588796 0  0.6580075260652187 0.8122556445489141 0  0.6163841821541198 0.967266913317176 0  0.125 1.5 0  0.35 0.5 0  0.65 0.5 0  0.5 0.65 0  0.8469874054402771 0.3478957913091444 0  0.3245383322568082 1.370320036919204 0  0.875 1.5 0  0.625 1.5 0  0.3893319639748608 0.9654366071334702 0  0.3223346093442226 0.7956602451451316 0  0.889714748531926 0.84375 0  0.125 0 0  0.875 0 0  0.1255889869382551 1.008856943713003 0  0.09944003484435231 0.84375 0  0.1382805521602539 0.3303643480715599 0  0.1366004694630674 0.6038634908658245 0  0.8990783052805509 1.214042471714644 0  0.668658096406439 1.365345830213541 0  0.1256028235987354 1.171715077169584 0  1 1.03125 0  0.8771001575862699 0.9992802925544542 0  0.375 1.5 0  0.375 0 0  0.625 0 0  0.6903369446057199 1.073113088240991 0  0.2508055501622219 0.5673522822942192 0  0.1875 1.397372561873074 0  0.7763483628448028 0.8097040473126911 0  0.7228926390269661 1.192219694772317 0  0.425 0.7397022019570473 0  0.502880832992453 0.9635283571381553 0  0.575 0.7350267602343212 0  0.4360607236286478 1.401581848014667 0  0 0.09375 0  0.117501592172302 0.120210456229736 0  0 1.40625 0  0.8895805301329724 1.374303686755315 0  1 0.09375 0  0.8932064825261059 0.140625 0  1 0.46875 0  0.7491117359292689 0.4068056351799293 0  0.7325892857142857 0.575 0  0.9077195128926427 0.2526498093370785 0  0.5535898384862248 1.4 0  0.2862335767983502 0.1135875300027696 0  0.6875 0.09008767814013303 0  0.425 0.2686897619023091 0  0.575 0.2686897619023091 0  0.2473344065696833 0.3057417823420628 0  0.7453015779946386 0.2985879063046734 0  0.5 0.1150143090901798 0  0.7685591996099543 1.396893159654718 0  0.3101877663965869 1.26674953462598 0  0.1077951867849426 1.323907731025259 0  1 0.65625 0  0.8891650081440881 0.5857332208147272 0  0.1007677805315621 0.2272256552865915 0  0.7968715917092577 0.09549815361541228 0  0.3261120109539702 0.2390008113368489 0  0 0.46875 0  0.09140542126065337 0.4216592458712581 0  0.35 0.425 0  0.7311434567761511 0.7156357995802678 0  0.2919618505553527 1.007643466945126 0  0.08983837159042833 0.6970644256489388 0  0.6682645595483953 0.237422322813065 0  0.8998020018038841 0.4383187780156251 0  0.3181107827910294 1.151262931136927 0  0.3720333480364825 1.058947728854826 0  0 1.21875 0  0.1003609880062736 0.5161452023746008 0  0 0.28125 0  1 0.28125 0  1 1.21875 0  0 0.65625 0  0 0.84375 0  0 1.03125 0  1 0.84375 0  1 1.40625 0  0.9093009528131841 1.090733220877184 0  0.7860227258733221 1.02043933632054 0  0.2307441467224153 0.8218289487513623 0  0.2528411345438668 0.6657600013847179 0  0.4084926922343957 0.8315748448273622 0  0.9202166509295927 0.703125 0  0.3291025750926692 0.8910969320761761 0  0.2156003274906323 1.187751415797996 0  0.7014659962158134 1.28056544327123 0  0.2003567957464576 0.07840869841509678 0  0.8104055170896122 1.207813336544415 0  0.09876309307291065 1.413676816133377 0  0.2077866146074518 0.3843959659369329 0  0.2665605884847265 0.4478926490851416 0  0.8511945383881471 0.7662478318744792 0  0.08439847728796501 1.090289510633832 0  0.5 0.2101535921113944 0  0.4197556514239601 0.07679209038960186 0  0.5625 0 0  0.59375 0.0784662732531748 0  0.08714495587406729 0.9303213966261739 0  0.7036417274683815 0.9850594824934642 0  0.6755320268986503 0.9000552383136148 0  0.5860738747831671 0.8809615541428588 0  0.2088643337429009 1.020440832220938 0  0.7325892857142857 0.4885336903971964 0  0.4471147131617949 1.024481429651863 0  0.9313289977941566 0.5146846620677518 0  0.9180219872311914 1.295577203732315 0  0.557548036763429 1.02868260590063 0  0.4451604117585401 0.9081923089371269 0  0.654058422565956 0.7332765200871801 0  0.7006786775708823 1.437898431814794 0  0.8093088642695168 0.6032446443778432 0  0.9237739500172332 0.06517639997702245 0  0.0625 0 0  0.9375 1.5 0  0.916328826652307 0.9241852991743037 0  0.171873989501834 0.8734121241734827 0  0.9285477532453221 0.3329160394873349 0  0.8313221886708546 0.2709216822179099 0  0.739498116874331 0.1471237652498467 0  0.1620375184655173 1.082817874707448 0  0.8242493456480263 0.4235545458621132 0  0.08092324714630188 1.24362538269709 0  0.3937094327312218 1.338112874304002 0  0.4996428508906701 0.7259062340301533 0  0.575 0.35 0  0.65 0.575 0  0.65 0.425 0  0.425 0.35 0  0.575 0.65 0  0.425 0.65 0  0.35 0.575 0  0.2634457364051707 1.421466625293684 0  0.2456683338177991 1.345762439477909 0  0.2639893318360002 0.7433347689534138 0  0.3507285030897302 0.725595745012912 0  0.8125 1.5 0  0.8370966351013709 1.428601215583214 0  0.1159182816951397 0.7690143386662499 0  0.07268341085386848 0.295831542634192 0  0.5632433583437957 0.8093064345680889 0  0.2799069474529262 0.3713889743612331 0  0.06036875067228691 0.609375 0  0.6171745445061244 1.082825455493875 0  0.1649291821849979 0.2622806563448759 0  0.9448573742659629 0.796875 0  0.819878068142786 0.8705255731026844 0  0.1754166553402996 0.9557718819026461 0  0.3125 0 0  0.3456514073649527 0.06854302435898529 0  0.179013816916958 0.6643092150062141 0  0.1685024487938309 0.5393386310926891 0  0.6629601924713451 1.144598607844157 0  0.598818411646755 1.341812641225657 0  0.6280839083339949 1.42659529326364 0  0.8467953663565162 0.9356556797149647 0  0.7209953524450999 0.6452061385343574 0  0.4942305993535075 0.2800767960556972 0  0.3061584457706445 1.082375355492541 0  0.3685543739956368 1.427850231385615 0  0.05227396747452195 0.794166041256576 0  0.3125 1.5 0  0.9496457419399936 0.984375 0  0.04954054144752973 1.359375 0  0.6737459127500345 0.1685001996464485 0  0.06628889425102936 0.1670183213191904 0  0.7179318144233049 0.8459436723546736 0  0.858285790039315 1.160480191818246 0  0.936808362524298 1.155092021473656 0  0.8548602347007285 1.267284087448593 0  0.9334213203093593 1.429572546872906 0  0.7313228343711509 1.340857410425121 0  0.05405463371455387 1.171875 0  0.1503883748403896 1.236950319791893 0  0.463653656573043 0.7940666406854493 0  0.05801660590855892 0.9932572163232567 0  0.09375 0.05838980176088906 0  0.3263950934941324 0.169863961403198 0  0.934725376680476 0.6364845845163584 0  0.0625 1.5 0  0.7156357623587829 0.7798871936803032 0  0.53125 0.05750715454508989 0  0.7289531798358591 0.2120513939389277 0  0.8611293008453803 0.08371275956016357 0  0.7931485975328414 0.7362462304195524 0  0.6632452451477077 1.224524506211694 0  0.6506492327121354 1.022084357310594 0  0.7430305338519925 1.12271278939875 0  0.2972167782079263 0.6125 0  0.08140105122587579 0.3588411210502321 0  0.8413482178663922 1.051986218878298 0  0.8441204858756779 1.329910317324504 0  0.9492429838281583 1.35135714298749 0  0.1714358186485003 0.7995424813790447 0  0.2598323266513226 0.2406306847305864 0  0.9375 0 0  0.6875 1.5 0  0.4375 0 0  0.1875 0 0  0.8125 0 0  0.6875 0 0  0.5625 1.5 0  0.4375 1.5 0  0.1875 1.5 0  0.8576207303520328 0.2120296334907739 0  0.2627640498257702 0.1728052841079521 0  0.1800607144524293 0.1411943334622621 0  0.2542163078251953 1.237640660837701 0  0.7591619624360891 1.242034861729323 0  0.04972001742217615 0.8808474296926768 0  0.3267792715450906 0.9545477668504242 0  0.1531104911380159 0.4140040574183872 0  0.1997848571381072 0.6046315752437972 0  0.2360802435888449 0.5046414722270375 0  0.2872149514161052 0.8461091037879988 0  0.1504082636827923 1.445128669770467 0  0.1851815538777085 1.336174488747262 0  0.4943755093475578 1.367373509401215 0  0.4964151309383568 1.433719520515024 0  0.3029991463633179 0.5375 0  0.6374699876673086 1.289950970400623 0  0.28125 0.05260436823277936 0  0.9412742001334101 0.3930080174094802 0  0.1908821188700928 1.134231497075342 0  0.3861268729108649 0.9064648318748592 0  0.5284333082565327 0.9060792218313511 0  0.8750375567166919 0.4932333314793089 0  0.1477326199654788 0.1909551566321114 0  0.3792612549576647 0.7779443610493932 0  0.9342249539166885 0.1922634780484449 0  1 0.140625 0  0.8302507856821559 0.1496309130576249 0  1 0.890625 0  0.9434043801182344 0.8706060349325631 0  0.3382096980264135 1.210656910306839 0  0.5622796583217582 0.2076725143819285 0  0.4583381614272422 0.1625839506007871 0  0.7721118865761186 0.6737867768191619 0  0.5582040803351463 0.1258007114404073 0  0.3000177205020042 0.6985687306279778 0  0 0.234375 0  0.8826713453770464 0.6600511600481319 0  0.7136112836337428 0.35387960538117 0  0.7959066994371263 0.3737904431053162 0  0.6338891054010829 0.2896157183928816 0  0.3499583098309357 1.006508473320714 0  0.9425268362234692 1.042505681182754 0  0.4461145717627564 0.9649688264828293 0  0.5594284226858414 0.9715936951847909 0  0.3104960594866802 0.3004315453087643 0  0.3670693837847625 0.2821125354429394 0  0.6136294557714667 0.693509645088642 0  0.6116178576521086 0.778892695
[...]
<PointData  Vectors="f_314"> 
<DataArray  type="Float64"  Name="f_314"  NumberOfComponents="3" format="ascii">-3.1776697721951175e-03 1.5306222855784913e-03 0.0000000000000000e+00  -7.7957798992941710e-02 -3.0948263076243956e-02 0.0000000000000000e+00  -9.1917234728327635e-02 1.3875304549212272e-01 0.0000000000000000e+00  -7.3354721235585315e-03 -9.7187989803538405e-03 0.0000000000000000e+00  -3.6904622400898335e+00 3.8849141984581106e+00 0.0000000000000000e+00  3.8736818424616879e+00 3.4055479085623719e+00 0.0000000000000000e+00  3.8166295295572188e+00 -4.0328260963267288e+00 0.0000000000000000e+00  -3.8623408864428650e+00 -3.9614795371916554e+00 0.0000000000000000e+00  -2.2658224542515032e-01 -1.3273241661800877e-01 0.0000000000000000e+00  -5.7921441700920839e-01 1.4617698110233002e-01 0.0000000000000000e+00  -9.4402828041002484e-01 7.4594104990003340e-01 0.0000000000000000e+00  -9.2805450573716597e-01 1.6466071450119335e+00 0.0000000000000000e+00  -3.6099319398912467e-03 2.3738125233701166e+00 0.0000000000000000e+00  9.4901474858101398e-01 1.6885675917170133e+00 0.0000000000000000e+00  1.0473694338857593e+00 7.9319981242648208e-01 0.0000000000000000e+00  5.9572338910268319e-01 7.3983585267468732e-02 0.0000000000000000e+00  2.7661269858249438e-01 -8.6348505264022102e-02 0.0000000000000000e+00  5.9834347321706463e-02 -7.2147509338891580e-02 0.0000000000000000e+00  2.3852187776342987e-03 -4.8782720091304868e-02 0.0000000000000000e+00  -6.0567556966360105e-02 -7.6946947034744168e-02 0.0000000000000000e+00  -2.1483838454692517e-03 -2.3327935218973224e+00 0.0000000000000000e+00  -1.7909917486652320e+00 3.8182075425323815e-03 0.0000000000000000e+00  1.7868861193514918e+00 1.7930429908168167e-02 0.0000000000000000e+00  4.9053518566189206e-04 2.5068299871928448e-02 0.0000000000000000e+00  -2.1312172334835093e+00 1.2354285350337538e-03 0.0000000000000000e+00  2.1120257026939795e+00 1.9141245476563509e-02 0.0000000000000000e+00  -3.8571811838142800e-01 -2.5980048552244226e-03 0.0000000000000000e+00  4.0018277731220780e-01 -4.0666007109862257e-03 0.0000000000000000e+00  7.8788798288511130e-01 9.4799721987348762e-01 0.0000000000000000e+00  -8.2986809463966105e-01 1.0231664783652605e+00 0.0000000000000000e+00  6.6299020826603134e-05 6.7912026738233655e-02 0.0000000000000000e+00  -3.9375685301693523e-04 6.8142470495268573e-02 0.0000000000000000e+00  2.6262214953477383e-02 -1.4993350517313595e+00 0.0000000000000000e+00  -8.6668915631634869e-02 -1.5013821576809407e+00 0.0000000000000000e+00  -1.4076959509288162e-02 2.0879298466443159e+00 0.0000000000000000e+00  -1.0792914663720594e-01 -2.3003041147328985e-03 0.0000000000000000e+00  1.1569570512637371e-01 4.5871802797619628e-04 0.0000000000000000e+00  -1.1960532302130213e+00 -1.7776258587045245e-02 0.0000000000000000e+00  1.2109109397043898e+00 3.2781426235501377e-03 0.0000000000000000e+00  2.8219798355861370e+00 -5.5070590785255322e-02 0.0000000000000000e+00  -2.3521315045785358e+00 -3.2410823142878650e-03 0.0000000000000000e+00  1.5577617970449072e-02 1.5720352781177324e-01 0.0000000000000000e+00  -2.8423616795080618e-02 1.7741534954367552e-01 0.0000000000000000e+00  -2.8107329981375448e+00 -2.1722315781209722e-01 0.0000000000000000e+00  1.3280699048917786e+00 -1.3532399958133754e+00 0.0000000000000000e+00  -1.3561796848539533e+00 -1.3832225242795213e+00 0.0000000000000000e+00  9.0820003758304811e-03 -3.5601925804657526e+00 0.0000000000000000e+00  5.0200816809707516e-01 -2.5013646012647937e+00 0.0000000000000000e+00  -4.8977435259256474e-01 -2.5302687561356709e+00 0.0000000000000000e+00  -9.8960342258585943e-01 1.5976395062910650e-02 0.0000000000000000e+00  2.3523475010794854e+00 4.6276733576859569e-03 0.0000000000000000e+00  9.9690434707624254e-01 -4.2256728951874586e-03 0.0000000000000000e+00  2.4089864782406506e-01 4.3400832487467800e-01 0.0000000000000000e+00  2.2803206553341324e+00 7.3927321939561441e-01 0.0000000000000000e+00  -1.9352853219204820e+00 9.6756643413510868e-01 0.0000000000000000e+00  -1.6985833226693289e-01 5.5784847617803757e-01 0.0000000000000000e+00  9.9991222667263047e-01 1.9330173272509033e+00 0.0000000000000000e+00  1.6592564565391088e-01 1.4785773822109378e+00 0.0000000000000000e+00  1.4996519652754946e-03 5.6458739780017454e-02 0.0000000000000000e+00  -3.5404078732598010e+00 -8.4892619084411119e-03 0.0000000000000000e+00  3.5299227779820375e+00 1.8461575781456432e-02 0.0000000000000000e+00  -6.4726067147617239e-04 3.0536403036534692e+00 0.0000000000000000e+00  2.2909022942382276e+00 -7.0003222449462332e-01 0.0000000000000000e+00  4.2078476738366420e-02 7.1121399234980301e-02 0.0000000000000000e+00  2.3092026241692152e-03 5.0921639411069447e-02 0.0000000000000000e+00  5.7979202611868281e-03 4.3219732374606981e-02 0.0000000000000000e+00  -1.9554535691133290e-01 1.5132401521343919e+00 0.0000000000000000e+00  -1.1971632164893649e+00 1.9157163530297272e+00 0.0000000000000000e+00  1.3581094315222484e+00 5.4166017802421962e-01 0.0000000000000000e+00  1.2124684510603927e-01 -7.5399725579946320e-01 0.0000000000000000e+00  6.0781115758316677e-02 -8.1679741833464858e-01 0.0000000000000000e+00  -6.2429761416297125e-01 4.3919949695036647e-01 0.0000000000000000e+00  -1.3609841375176712e+00 4.5194984008247713e-01 0.0000000000000000e+00  -2.1122179592853496e+00 -6.5513262775622683e-01 0.0000000000000000e+00  -2.5000177318877155e+00 3.4999808734706406e-01 0.0000000000000000e+00  2.0039097747284354e-01 1.3777096220465820e-01 0.0000000000000000e+00  -5.3017547406098611e-02 6.6045153116820313e-02 0.0000000000000000e+00  -2.2875336606726321e-01 2.2025239746283737e-01 0.0000000000000000e+00  6.3750904532238006e-01 -9.8034662347205575e-03 0.0000000000000000e+00  6.7942954094332386e-01 4.0950094011702620e-01 0.0000000000000000e+00  1.3090708364964969e-04 4.6398663561316542e-02 0.0000000000000000e+00  -2.4832832590593459e-02 -2.1173044652583197e+00 0.0000000000000000e+00  4.5338904327573122e-03 -2.1315748332612379e+00 0.0000000000000000e+00  2.8601901216805965e-03 8.3469455480742238e-01 0.0000000000000000e+00  -3.1898526640078053e+00 3.8500464386638694e-01 0.0000000000000000e+00  -1.4244773571234971e-02 8.8556847238589836e-02 0.0000000000000000e+00  1.4618009970846071e+00 1.1972699014844805e+00 0.0000000000000000e+00  -8.6950068444781911e-02 3.6311381905644324e-01 0.0000000000000000e+00  -5.2243756902524208e-01 2.7069645145549193e+00 0.0000000000000000e+00  7.0075032379083111e-03 1.7127292111923729e+00 0.0000000000000000e+00  5.5514437002259676e-01 2.8531699877760688e+00 0.0000000000000000e+00  2.3424180412595485e-02 1.8838456592868820e-02 0.0000000000000000e+00  -6.4212232866141850e-01 -1.3921497203190062e-02 0.0000000000000000e+00  -7.5918610222448579e-01 -7.4556615459056141e-01 0.0000000000000000e+00  -4.9310892453725136e-02 -1.0125183024837449e-03 0.0000000000000000e+00  5.2492649227036087e-02 6.3695077713706888e-02 0.0000000000000000e+00  5.4483389669959725e-01 -4.3947019595677338e-02 0.0000000000000000e+00  9.0127429868959419e-01 -6.9152528325553930e-01 0.0000000000000000e+00  2.3490390432866364e+00 -4.1418878346914847e-03 0.0000000000000000e+00  3.1736682603110080e+00 -6.9667695825646614e-01 0.0000000000000000e+00  3.2488152189550368e+00 4.7165346753339937e-01 0.0000000000000000e+00  1.6296529778647444e+00 -5.3552043720426046e-01 0.0000000000000000e+00  -2.0571645974032767e-02 1.5625004200372310e-02 0.0000000000000000e+00  -6.3142593696735250e-01 -1.8701242871117270e+00 0.0000000000000000e+00  4.6684880326053319e-01 -1.9627521182026817e+00 0.0000000000000000e+00  -4.5974797092155983e-01 -3.3798118311702492e+00 0.0000000000000000e+00  4.5439313391672503e-01 -3.3680708099376746e+00 0.0000000000000000e+00  -2.5229889487277810e+00 -1.6087306652816868e+00 0.0000000000000000e+00  2.3646252961393555e+00 -1.7259374565491388e+00 0.0000000000000000e+00  -2.1114239187501386e-02 -2.5192286152227270e+00 0.0000000000000000e+00  -8.1436774997213147e-04 8.8011343840605286e-02 0.0000000000000000e+00  1.3609430728884384e-01 1.6709138772305737e-01 0.0000000000000000e+00  -7.4058042560794221e-02 8.5683781189933625e-02 0.0000000000000000e+00  2.1163783189587120e+00 -7.9998881999865969e-03 0.0000000000000000e+00  2.4535340518418947e+00 2.2912484021770585e-01 0.0000000000000000e+00  -1.4366727090591020e+00 -5.8812651990975395e-01 0.0000000000000000e+00  5.9750859220078045e-01 -1.3250465410763055e+00 0.0000000000000000e+00  -1.4097064013981293e+00 -2.5351169899746444e+00 0.0000000000000000e+00  -2.3420177628658037e+00 -1.0691518828114780e-03 0.0000000000000000e+00  -2.3756662933164709e+00 -2.1777536235574330e-01 0.0000000000000000e+00  -4.0001622382750721e+00 -8.4145017671115971e-02 0.0000000000000000e+00  2.1550102128557262e+00 1.6646676909392950e+00 0.0000000000000000e+00  -2.9854656091858084e-01 1.0390042165116353e+00 0.0000000000000000e+00  -2.0314510775509187e+00 3.9205614633620572e-01 0.0000000000000000e+00  1.3594979128974181e+00 -2.5943881068875023e+00 0.0000000000000000e+00  2.4467353619229462e+00 -1.9395972110518986e-01 0.0000000000000000e+00  1.8014146964169481e-01 5.4574180010412587e-01 0.0000000000000000e+00  2.0036490589838848e-01 1.1588202273630279e+00 0.0000000000000000e+00  -2.1865613419056362e-01 -9.3244376803843431e-04 0.0000000000000000e+00  -2.4973730933053768e+00 3.1852779558055225e-02 0.0000000000000000e+00  -1.7552617781197666e+00 2.0077327020296678e-03 0.0000000000000000e+00  1.7145067677067831e+00 4.6107780653011996e-03 0.0000000000000000e+00  2.1291618092149611e-01 -2.0727993580315730e-02 0.0000000000000000e+00  -2.1379119979248604e+00 -1.4149181567072186e-03 0.0000000000000000e+00  -1.3782058747892312e+00 2.7418572817398429e-02 0.0000000000000000e+00  -6.4073896354121873e-01 1.8529180176384979e-03 0.0000000000000000e+00  1.3870893631425409e+00 1.9906283052601798e-02 0.0000000000000000e+00  4.8175767908165697e-02 7.3418481286654857e-06 0.0000000000000000e+00  4.2556994274899912e-01 2.4460823115576807e-01 0.0000000000000000e+00  4.4956906693271848e-01 6.9607398366665352e-01 0.0000000000000000e+00  -1.3654498681837210e+00 1.1992208902681272e+00 0.0000000000000000e+00  -2.6854881669439519e+00 1.2096192475196057e+00 0.0000000000000000e+00  -4.7166383592711386e-01 2.0556421139699368e+00 0.0000000000000000e+00  2.0259148668249876e+00 3.0267651683132479e-01 0.0000000000000000e+00  -6.4641564071243529e-01 1.5155201065021633e+00 0.0000000000000000e+00  -7.4864059550695611e-02 3.0894477594594777e-01 0.0000000000000000e+00  -9.0172174573553240e-02 1.4040203075483559e-01 0.0000000000000000e+00  -5.2483000792866985e-01 -1.2451133981905103e+00 0.0000000000000000e+00  1.0059879673617038e-01 2.5639806978338686e-01 0.0000000000000000e+00  -3.5536881015086987e-02 5.1005381629158748e-02 0.0000000000000000e+00  -2.7821890099676287e+00 -7.5685669509534559e-01 0.0000000000000000e+00  -3.2971924314707031e+00 -3.3687498373325753e-01 0.0000000000000000e+00  1.7644332261661837e+00 7.4566005848938588e-01 0.0000000000000000e+00  -4.4433274939502060e-01 2.0113518306610956e-01 0.0000000000000000e+00  4.4882214413018689e-03 -2.9644821648074626e+00 0.0000000000000000e+00  -1.9533937702757551e-01 -2.3093463779206109e+00 0.0000000000000000e+00  1.3894488949901080e-03 -2.2796037427869207e+00 0.0000000000000000e+00  2.0068584525498562e-01 -2.2959430401038174e+00 0.0000000000000000e+00  -9.5330199512479241e-01 3.5177175170819358e-01 0.0000000000000000e+00  3.4569229851065125e-01 1.0921864647794104e+00 0.0000000000000000e+00  6.5699097286576180e-01 1.4517335489120036e+00 0.0000000000000000e+00  3.5768956418850639e-01 1.8715847513543433e+00 0.0000000000000000e+00  -4.7669394567929757e-01 6.8573500942474852e-01 0.0000000000000000e+00  3.2856152601242901e+00 -9.0879232257289319e-02 0.0000000000000000e+00  9.1057411953566134e-02 1.6212363882873928e+00 0.0000000000000000e+00  2.4327056109966407e+00 6.0514977881735458e-03 0.0000000000000000e+00  1.1285126578404794e-01 8.2135810515562124e-02 0.0000000000000000e+00  -1.4166059065007031e-01 1.6173314723010273e+00 0.0000000000000000e+00  -1.6722029914479000e-01 1.7973602905399786e+00 0.0000000000000000e+00  1.5011890241861419e+00 2.5751684072169110e+00 0.0000000000000000e+00  -1.2202748577761871e-02 6.4700407440901955e-02 0.0000000000000000e+00  2.6806975441035439e+00 4.5893123482175968e-01 0.0000000000000000e+00  3.8707677027775139e-01 -4.9084674882931456e-01 0.0000000000000000e+00  -5.3135067719488963e-02 -3.6398949281626569e-01 0.0000000000000000e+00  2.9665860074396702e-03 2.9495781483870775e-02 0.0000000000000000e+00  9.7555317746144132e-01 3.3155872181397672e-01 0.0000000000000000e+00  -1.1420782113146284e+00 7.7517784923730049e-01 0.0000000000000000e+00  2.0392116107182670e+00 -3.1038621476140194e-01 0.0000000000000000e+00  1.8177079468181232e+00 -1.0073968206356190e+00 0.0000000000000000e+00  8.9746983601606745e-01 -1.7378246744250510e+00 0.0000000000000000e+00  -3.6826143072429729e-01 4.5557397623387091e-01 0.0000000000000000e+00  2.6823230791423165e+00 -3.9296530072560987e-01 0.0000000000000000e+00  -1.6795874929537932e-01 1.0570392171315302e-01 0.0000000000000000e+00  6.8885079274550939e-02 1.8405308434429547e-02 0.0000000000000000e+00  1.5837891679865435e-02 2.8020250222115606e+00 0.0000000000000000e+00  -3.0464431590032138e-02 -3.9619360997623998e+00 0.0000000000000000e+00  3.7890246638563121e+00 4.0700977252074555e-02 0.0000000000000000e+00  3.6879301886260984e+00 -3.1063683089753720e-02 0.0000000000000000e+00  -4.5829088506652113e-02 -3.9027002736924530e+00 0.0000000000000000e+00  2.1302551921922020e-03 3.3694170361050948e+00 0.0000000000000000e+00  -7.3400958887937379e-02 3.2263749686170455e+00 0.0000000000000000e+00  -3.7638459244805902e+00 5.3444813210488183e-02 0.0000000000000000e+00  1.0763852367809381e-02 7.8862144373425244e-02 0.0000000000000000e+00  1.2732344543515656e-02 1.1298439129101825e-01 0.0000000000000000e+00  -1.8693455685683469e+00 1.6550838007573403e+00 0.0000000000000000e+00  -1.5578594347768033e+00 2.7851402415019697e+00 0.0000000000000000e+00  -1.4038190819536593e-03 6.7819738690841069e-02 0.0000000000000000e+00  1.6933514417985872e-02 6.9106120527830786e-02 0.0000000000000000e+00  -1.7143583829477071e+00 5.4257427069166475e-01 0.0000000000000000e+00  -1.8449266971828182e+00 -3.9459894624159614e-01 0.0000000000000000e+00  3.9944755216829153e-01 2.2945606405182879e+00 0.0000000000000000e+00  -3.4981716883144944e+00 -1.1768900136671732e+00 0.0000000000000000e+00  -2.3105662141485075e+00 1.3858674306016963e-01 0.0000000000000000e+00  -3.4415710450129683e-01 1.1734744268309256e+00 0.0000000000000000e+00  -1.7475585845597870e+00 -9.7029942422371662e-01 0.0000000000000000e+00  1.5738798439396218e+00 2.4025050519527646e-01 0.0000000000000000e+00  1.1419833722772279e+00 8.4481632360045356e-01 0.0000000000000000e+00  -7.7380493027983810e-01 6.6747598593939994e-01 0.0000000000000000e+00  3.1705196222568850e-02 -1.8757488647682048e+00 0.0000000000000000e+00  -2.8012301203875056e-01 -2.0532862355152641e+00 0.0000000000000000e+00  -2.3936388492609613e+00 7.1331971122625326e-01 0.0000000000000000e+00  -2.7418839362500931e+00 1.2528418903453967e-01 0.0000000000000000e+00  -3.0360624792639357e-01 5.8175774218668164e-01 0.0000000000000000e+00  -6.5728041314262867e-02 1.1877876583013047e-02 0.0000000000000000e+00  -2.2331458149016804e-02 4.4160224502674032e-02 0.0000000000000000e+00  8.7381654444697399e-01 6.1533939069544386e-01 0.0000000000000000e+00  3.2784397709510520e+00 1.3113807774828334e+00 0.0000000000000000e+00  -1.9035260821891789e-02 -3.3594890214150936e+00 0.0000000000000000e+00  2.9326577730593953e-02 8.1892499502705896e-01 0.0000000000000000e+00  2.2182842578633667e-02 4.4727146010521524e-02 0.0000000000000000e+00  -1.5780184735089857e+00 2.4777425849364074e-01 0.0000000000000000e+00  -3.3901289838543032e-03 5.6773463431215934e-02 0.0000000000000000e+00  7.8364096345736212e-01 1.7972619113883498e-01 0.0000000000000000e+00  -7.1541300266666316e-02 3.4031994578245878e-02 0.0000000000000000e+00  8.2588982059444538e-01 -2.2099725147979710e+00 0.0000000000000000e+00  -1.0601551837128418e+00 -4.3188815353472382e-01 0.0000000000000000e+00  1.0659577253254147e+00 1.4509047452100774e+00 0.0000000000000000e+00  2.3284713841007787e-01 2.5798915836007230e-01 0.0000000000000000e+00  3.2431897750220906e-01 1.1930396414652229e-01 0.0000000000000000e+00  9.7029368644125216e-02 1.5002927705496485e-01 0.0000000000000000e+00  3.1227177463761597e-02 3.4419693553158097e-02 0.0000000000000000e+00  -3.6265636720064227e-02 1.0773668781156551e-01 0.0000000000000000e+00  -2.9568922184047558e-01 9.6749781666141496e-02 0.0000000000000000e+00  -1.1553481185433127e-01 1.8739982461029980e-01 0.0000000000000000e+00  -2.3752979232861929e-01 2.3528294143000581e+00 0.0000000000000000e+00  -7.5319869559740016e-01 2.0510520814546931e-01 0.0000000000000000e+00  -4.0040178320319963e-01 -6.1638730459926805e-01 0.0000000000000000e+00  -8.4307003980097939e-01 -2.2455542036496019e+00 0.0000000000000000e+00  2.2513812592655746e+00 1.7424896996036651e-01 0.0000000000000000e+00  6.9520480412677901e-03 2.3924016526253093e-02 0.0000000000000000e+00  1.5130014267838194e+00 1.7402782072757474e+00 0.0000000000000000e+00  5.4150140593059219e-02 -2.3581230141109435e+00 0.0000000000000000e+00  1.3344568886597368e+00 -1.9465371365746418e+00 0.0000000000000000e+00  5.2219573057135971e-01 -8.9894229370806988e-01 0.0000000000000000e+00  1.9624410147162028e+00 1.0919090250495584e+00 0.0000000000000000e+00  -2.4746498210851242e-01 2.0865856738054706e-01 0.0000000000000000e+00  8.8651133313868216e-02 1.2006293590206478e+00 0.0000000000000000e+00  5.6538029624351394e-02 5.4408051505317223e-01 0.0000000000000000e+00  -3.6783870713873581e+00 8.5182770594505086e-01 0.0000000000000000e+00  -2.1426991543472060e+00 -3.2605355060546015e-01 0.0000000000000000e+00  4.5748595138170561e-01 4.6373455068728275e-01 0.0000000000000000e+00  5.3745974763646370e-02 1.0870233304042697e-01 0.0000000000000000e+00  7.5558377640002977e-02 3.6626991372122851e-02 0.0000000000000000e+00  -1.5743742979016841e+00 8.5159442534801078e-01 0.0000000000000000e+00  -1.6355186321308186e+00 -1.9627383378627297e+00 0.0000000000000000e+00  8.4034028066478292e-03 -3.6249737937579041e-01 0.0000000000000000e+00  3.5718533105816462e-03 6.1302399062243842e-02 0.0000000000000000e+00  -1.7767628149137241e-02 -2.2620216460548921e+00 0.0000000000000000e+00  4.7700242864559206e-02 -1.1671634376845763e+00 0.0000000000000000e+00  4.4929475008659292e-02 -1.1300362612215518e+00 0.0000000000000000e+00  1.1635689155488547e-02 -1.8901013156134792e+00 0.0000000000000000e+00  -4.1981342188098139e-05 2.7807183840714369e-02 0.0000000000000000e+00  5.8720820793250995e-04 2.8955616593836064e-02 0.0000000000000000e+00  1.5004356291560069e-03 6.6968485038457301e-02 0.0000000000000000e+00  1.3778877072854203e+00 -8.8217858955046324e-01 0.0000000000000000e+00  -1.0802693556994072e+00 -1.8468454041689286e+00 0.0000000000000000e+00  -9.0975646135756971e-01 -1.1575914536651801e+00 0.0000000000000000e+00  4.3921443799233302e-02 2.4601457140640609e-01 0.0000000000000000e+00  -7.1570930227952342e-03 2.1932496236911625e-01 0.0000000000000000e+00  -1.1986123344172426e+00 2.0224685938055731e-01 0.0000000000000000e+00  -4.0258440217499347e-01 1.2795774904558923e+00 0.0000000000000000e+00  -2.5558445396698004e+00 -4.2401509881047844e-01 0.0000000000000000e+00  -2.7949323312220042e+00 5.0713747156004285e-01 0.0000000000000000e+00  -3.0933998801054763e+00 4.3231200692751990e-03 0.0000000000000000e+00  -1.0011082875680202e+00 1.5089430073834635e+00 0.0000000000000000e+00  -1.3637267060175928e-02 6.5290895354417428e-02 0.0000000000000000e+00  -3.3693496028170580e-02 1.1800570321725304e-01 0.0000000000000000e+00  4.3529310725774805e-03 -6.1101139887310835e-03 0.0000000000000000e+00  6.5109065691463402e-04 1.8665319272272995e-02 0.0000000000000000e+00  -3.4405797610039128e+00 1.8107312140922846e-01 0.0000000000000000e+00  -1.4051167668715431e-01 4.9869239420722612e-02 0