<?xml version="1.0"?>
<VTKFile type="UnstructuredGrid"  version="0.1"  >
<UnstructuredGrid>
<Piece  NumberOfPoints="1442" NumberOfCells="2689">
<Points>
<DataArray  type="Float64"  NumberOfComponents="3"  format="ascii">0 1.5 0  0 0 0  1 0 0  1 1.5 0  0.35 0.65 0  0.65 0.65 0  0.65 0.35 0  0.35 0.35 0  0.5866025403784438 1.25 0  0.6 1.2 0  0.5866025403784438 1.15 0  0.55 1.113397459621556 0  0.5 1.1 0  0.45 1.113397459621556 0  0.4133974596215561 1.15 0  0.4 1.2 0  0.4133974596215561 1.25 0  0.45 1.286602540378444 0  0.5 1.3 0  0.55 1.286602540378444 0  0.5 0 0  0 0.75 0  1 0.75 0  0.5 1.5 0  0 0.375 0  1 0.375 0  0 1.125 0  1 1.125 0  0.7720072424407859 0.9279927575592141 0  0.2369660147341462 0.9168810515695116 0  0.75 1.5 0  0.25 1.5 0  0.25 0 0  0.75 0 0  0.5 0.85 0  0 1.3125 0  1 1.3125 0  0 0.1875 0  1 0.1875 0  0.8151785714285714 0.5 0  0 0.5625 0  0.7912795060263956 1.294622674701861 0  0.2063122081232003 1.278693406660268 0  0.1825892857142857 0.46875 0  0.7939338235294118 0.2018382352941176 0  0.2060661764705882 0.2018382352941177 0  0.5 0.35 0  0.6048949210808516 0.1621878909653493 0  0.3951050789191484 0.1621878909653493 0  0 0.9375 0  1 0.5625 0  1 0.9375 0  0.8141972910020407 1.109596487353587 0  0.8300504758824617 0.6823233344113842 0  0.1858106595831645 0.7378373085410758 0  0.238295786310014 1.099198431588796 0  0.6580075260652187 0.8122556445489141 0  0.6163841821541198 0.967266913317176 0  0.125 1.5 0  0.35 0.5 0  0.65 0.5 0  0.5 0.65 0  0.8469874054402771 0.3478957913091444 0  0.3245383322568082 1.370320036919204 0  0.875 1.5 0  0.625 1.5 0  0.3893319639748608 0.9654366071334702 0  0.3223346093442226 0.7956602451451316 0  0.889714748531926 0.84375 0  0.125 0 0  0.875 0 0  0.1255889869382551 1.008856943713003 0  0.09944003484435231 0.84375 0  0.1382805521602539 0.3303643480715599 0  0.1366004694630674 0.6038634908658245 0  0.8990783052805509 1.214042471714644 0  0.668658096406439 1.365345830213541 0  0.1256028235987354 1.171715077169584 0  1 1.03125 0  0.8771001575862699 0.9992802925544542 0  0.375 1.5 0  0.375 0 0  0.625 0 0  0.6903369446057199 1.073113088240991 0  0.2508055501622219 0.5673522822942192 0  0.1875 1.397372561873074 0  0.7763483628448028 0.8097040473126911 0  0.7228926390269661 1.192219694772317 0  0.425 0.7397022019570473 0  0.502880832992453 0.9635283571381553 0  0.575 0.7350267602343212 0  0.4360607236286478 1.401581848014667 0  0 0.09375 0  0.117501592172302 0.120210456229736 0  0 1.40625 0  0.8895805301329724 1.374303686755315 0  1 0.09375 0  0.8932064825261059 0.140625 0  1 0.46875 0  0.7491117359292689 0.4068056351799293 0  0.7325892857142857 0.575 0  0.9077195128926427 0.2526498093370785 0  0.5535898384862248 1.4 0  0.2862335767983502 0.1135875300027696 0  0.6875 0.09008767814013303 0  0.425 0.2686897619023091 0  0.575 0.2686897619023091 0  0.2473344065696833 0.3057417823420628 0  0.7453015779946386 0.2985879063046734 0  0.5 0.1150143090901798 0  0.7685591996099543 1.396893159654718 0  0.3101877663965869 1.26674953462598 0  0.1077951867849426 1.323907731025259 0  1 0.65625 0  0.8891650081440881 0.5857332208147272 0  0.1007677805315621 0.2272256552865915 0  0.7968715917092577 0.09549815361541228 0  0.3261120109539702 0.2390008113368489 0  0 0.46875 0  0.09140542126065337 0.4216592458712581 0  0.35 0.425 0  0.7311434567761511 0.7156357995802678 0  0.2919618505553527 1.007643466945126 0  0.08983837159042833 0.6970644256489388 0  0.6682645595483953 0.237422322813065 0  0.8998020018038841 0.4383187780156251 0  0.3181107827910294 1.151262931136927 0  0.3720333480364825 1.058947728854826 0  0 1.21875 0  0.1003609880062736 0.5161452023746008 0  0 0.28125 0  1 0.28125 0  1 1.21875 0  0 0.65625 0  0 0.84375 0  0 1.03125 0  1 0.84375 0  1 1.40625 0  0.9093009528131841 1.090733220877184 0  0.7860227258733221 1.02043933632054 0  0.2307441467224153 0.8218289487513623 0  0.2528411345438668 0.6657600013847179 0  0.4084926922343957 0.8315748448273622 0  0.9202166509295927 0.703125 0  0.3291025750926692 0.8910969320761761 0  0.2156003274906323 1.187751415797996 0  0.7014659962158134 1.28056544327123 0  0.2003567957464576 0.07840869841509678 0  0.8104055170896122 1.207813336544415 0  0.09876309307291065 1.413676816133377 0  0.2077866146074518 0.3843959659369329 0  0.2665605884847265 0.4478926490851416 0  0.8511945383881471 0.7662478318744792 0  0.08439847728796501 1.090289510633832 0  0.5 0.2101535921113944 0  0.4197556514239601 0.07679209038960186 0  0.5625 0 0  0.59375 0.0784662732531748 0  0.08714495587406729 0.9303213966261739 0  0.7036417274683815 0.9850594824934642 0  0.6755320268986503 0.9000552383136148 0  0.5860738747831671 0.8809615541428588 0  0.2088643337429009 1.020440832220938 0  0.7325892857142857 0.4885336903971964 0  0.4471147131617949 1.024481429651863 0  0.9313289977941566 0.5146846620677518 0  0.9180219872311914 1.295577203732315 0  0.557548036763429 1.02868260590063 0  0.4451604117585401 0.9081923089371269 0  0.654058422565956 0.7332765200871801 0  0.7006786775708823 1.437898431814794 0  0.8093088642695168 0.6032446443778432 0  0.9237739500172332 0.06517639997702245 0  0.0625 0 0  0.9375 1.5 0  0.916328826652307 0.9241852991743037 0  0.171873989501834 0.8734121241734827 0  0.9285477532453221 0.3329160394873349 0  0.8313221886708546 0.2709216822179099 0  0.739498116874331 0.1471237652498467 0  0.1620375184655173 1.082817874707448 0  0.8242493456480263 0.4235545458621132 0  0.08092324714630188 1.24362538269709 0  0.3937094327312218 1.338112874304002 0  0.4996428508906701 0.7259062340301533 0  0.575 0.35 0  0.65 0.575 0  0.65 0.425 0  0.425 0.35 0  0.575 0.65 0  0.425 0.65 0  0.35 0.575 0  0.2634457364051707 1.421466625293684 0  0.2456683338177991 1.345762439477909 0  0.2639893318360002 0.7433347689534138 0  0.3507285030897302 0.725595745012912 0  0.8125 1.5 0  0.8370966351013709 1.428601215583214 0  0.1159182816951397 0.7690143386662499 0  0.07268341085386848 0.295831542634192 0  0.5632433583437957 0.8093064345680889 0  0.2799069474529262 0.3713889743612331 0  0.06036875067228691 0.609375 0  0.6171745445061244 1.082825455493875 0  0.1649291821849979 0.2622806563448759 0  0.9448573742659629 0.796875 0  0.819878068142786 0.8705255731026844 0  0.1754166553402996 0.9557718819026461 0  0.3125 0 0  0.3456514073649527 0.06854302435898529 0  0.179013816916958 0.6643092150062141 0  0.1685024487938309 0.5393386310926891 0  0.6629601924713451 1.144598607844157 0  0.598818411646755 1.341812641225657 0  0.6280839083339949 1.42659529326364 0  0.8467953663565162 0.9356556797149647 0  0.7209953524450999 0.6452061385343574 0  0.4942305993535075 0.2800767960556972 0  0.3061584457706445 1.082375355492541 0  0.3685543739956368 1.427850231385615 0  0.05227396747452195 0.794166041256576 0  0.3125 1.5 0  0.9496457419399936 0.984375 0  0.04954054144752973 1.359375 0  0.6737459127500345 0.1685001996464485 0  0.06628889425102936 0.1670183213191904 0  0.7179318144233049 0.8459436723546736 0  0.858285790039315 1.160480191818246 0  0.936808362524298 1.155092021473656 0  0.8548602347007285 1.267284087448593 0  0.9334213203093593 1.429572546872906 0  0.7313228343711509 1.340857410425121 0  0.05405463371455387 1.171875 0  0.1503883748403896 1.236950319791893 0  0.463653656573043 0.7940666406854493 0  0.05801660590855892 0.9932572163232567 0  0.09375 0.05838980176088906 0  0.3263950934941324 0.169863961403198 0  0.934725376680476 0.6364845845163584 0  0.0625 1.5 0  0.7156357623587829 0.7798871936803032 0  0.53125 0.05750715454508989 0  0.7289531798358591 0.2120513939389277 0  0.8611293008453803 0.08371275956016357 0  0.7931485975328414 0.7362462304195524 0  0.6632452451477077 1.224524506211694 0  0.6506492327121354 1.022084357310594 0  0.7430305338519925 1.12271278939875 0  0.2972167782079263 0.6125 0  0.08140105122587579 0.3588411210502321 0  0.8413482178663922 1.051986218878298 0  0.8441204858756779 1.329910317324504 0  0.9492429838281583 1.35135714298749 0  0.1714358186485003 0.7995424813790447 0  0.2598323266513226 0.2406306847305864 0  0.9375 0 0  0.6875 1.5 0  0.4375 0 0  0.1875 0 0  0.8125 0 0  0.6875 0 0  0.5625 1.5 0  0.4375 1.5 0  0.1875 1.5 0  0.8576207303520328 0.2120296334907739 0  0.2627640498257702 0.1728052841079521 0  0.1800607144524293 0.1411943334622621 0  0.2542163078251953 1.237640660837701 0  0.7591619624360891 1.242034861729323 0  0.04972001742217615 0.8808474296926768 0  0.3267792715450906 0.9545477668504242 0  0.1531104911380159 0.4140040574183872 0  0.1997848571381072 0.6046315752437972 0  0.2360802435888449 0.5046414722270375 0  0.2872149514161052 0.8461091037879988 0  0.1504082636827923 1.445128669770467 0  0.1851815538777085 1.336174488747262 0  0.4943755093475578 1.367373509401215 0  0.4964151309383568 1.433719520515024 0  0.3029991463633179 0.5375 0  0.6374699876673086 1.289950970400623 0  0.28125 0.05260436823277936 0  0.9412742001334101 0.3930080174094802 0  0.1908821188700928 1.134231497075342 0  0.3861268729108649 0.9064648318748592 0  0.5284333082565327 0.9060792218313511 0  0.8750375567166919 0.4932333314793089 0  0.1477326199654788 0.1909551566321114 0  0.3792612549576647 0.7779443610493932 0  0.9342249539166885 0.1922634780484449 0  1 0.140625 0  0.8302507856821559 0.1496309130576249 0  1 0.890625 0  0.9434043801182344 0.8706060349325631 0  0.3382096980264135 1.210656910306839 0  0.5622796583217582 0.2076725143819285 0  0.4583381614272422 0.1625839506007871 0  0.7721118865761186 0.6737867768191619 0  0.5582040803351463 0.1258007114404073 0  0.3000177205020042 0.6985687306279778 0  0 0.234375 0  0.8826713453770464 0.6600511600481319 0  0.7136112836337428 0.35387960538117 0  0.7959066994371263 0.3737904431053162 0  0.6338891054010829 0.2896157183928816 0  0.3499583098309357 1.006508473320714 0  0.9425268362234692 1.042505681182754 0  0.4461145717627564 0.9649688264828293 0  0.5594284226858414 0.9715936951847909 0  0.3104960594866802 0.3004315453087643 0  0.3670693837847625 0.2821125354429394 0  0.6136294557714667 0.693509645088642 0  0.6116178576521086 0.778892695
[...]
<PointData  Vectors="f_52"> 
<DataArray  type="Float64"  Name="f_52"  NumberOfComponents="3" format="ascii">1.4828439768637986e-03 -5.9512374725632631e+00 0.0000000000000000e+00  2.6452930346459215e-02 -4.4663127121687692e-02 0.0000000000000000e+00  -1.9823800971065120e+00 -3.1266495827832107e-02 0.0000000000000000e+00  -1.9821570797208299e+00 -5.9675489607049839e+00 0.0000000000000000e+00  -7.1420655882460371e-01 -2.6137984420264142e+00 0.0000000000000000e+00  -1.3086585640381703e+00 -2.6027419312588096e+00 0.0000000000000000e+00  -1.3007241452934573e+00 -1.3858777575743886e+00 0.0000000000000000e+00  -6.8953709076624936e-01 -1.3989066314977481e+00 0.0000000000000000e+00  -1.1827638419305886e+00 -5.0029782619853433e+00 0.0000000000000000e+00  -1.2171598733477100e+00 -4.7989204156906675e+00 0.0000000000000000e+00  -1.1887898632028486e+00 -4.5810172687125981e+00 0.0000000000000000e+00  -1.1003440077051707e+00 -4.4191030546277021e+00 0.0000000000000000e+00  -1.0164553605292712e+00 -4.3805881107096267e+00 0.0000000000000000e+00  -8.9809057205000087e-01 -4.4318554166769939e+00 0.0000000000000000e+00  -8.0734892440837602e-01 -4.5783029273375044e+00 0.0000000000000000e+00  -7.7403799617973490e-01 -4.7931391289585825e+00 0.0000000000000000e+00  -8.1424444816537189e-01 -5.0007310551841444e+00 0.0000000000000000e+00  -8.8535515839368628e-01 -5.1720777397116517e+00 0.0000000000000000e+00  -9.9642686217116072e-01 -5.2256309469722027e+00 0.0000000000000000e+00  -1.1040089395332486e+00 -5.1663854495640154e+00 0.0000000000000000e+00  -1.0102721307826001e+00 -3.2906273185092080e-02 0.0000000000000000e+00  1.3427757823279492e-02 -2.9976865796165231e+00 0.0000000000000000e+00  -1.9794252637284797e+00 -3.0102406322337840e+00 0.0000000000000000e+00  -1.0083183497305819e+00 -5.9629845632255529e+00 0.0000000000000000e+00  -4.4627350275508841e-03 -1.4997586268357461e+00 0.0000000000000000e+00  -2.0089343581537951e+00 -1.4860433548684675e+00 0.0000000000000000e+00  -2.8136077421536680e-03 -4.5355386466802177e+00 0.0000000000000000e+00  -1.9887226260590047e+00 -4.5308391183196406e+00 0.0000000000000000e+00  -1.5533153651059910e+00 -3.7023663275281486e+00 0.0000000000000000e+00  -4.7850364684756275e-01 -3.6467416101244781e+00 0.0000000000000000e+00  -1.4990342707191999e+00 -5.9640293156733879e+00 0.0000000000000000e+00  -5.0245376946651044e-01 -5.9538469974190553e+00 0.0000000000000000e+00  -4.8276777638457052e-01 -5.1032046167089666e-02 0.0000000000000000e+00  -1.4976955585914133e+00 -4.3378937948319859e-02 0.0000000000000000e+00  -9.9336062890848142e-01 -3.4015823335780242e+00 0.0000000000000000e+00  9.2558813637831864e-03 -5.2409489479827105e+00 0.0000000000000000e+00  -1.9923033067311127e+00 -5.2455366275820401e+00 0.0000000000000000e+00  -8.1973818627716424e-03 -7.5964374917261956e-01 0.0000000000000000e+00  -1.9956179407883052e+00 -7.7428494877909126e-01 0.0000000000000000e+00  -1.6349145710193931e+00 -1.9958985400302167e+00 0.0000000000000000e+00  3.7967515635144596e-03 -2.2471981579062361e+00 0.0000000000000000e+00  -1.5849402388296443e+00 -5.1641294028796461e+00 0.0000000000000000e+00  -4.0631638466081910e-01 -5.1055804919208905e+00 0.0000000000000000e+00  -3.6831920786955008e-01 -1.8796412066956898e+00 0.0000000000000000e+00  -1.5899534080984825e+00 -8.0761370657120768e-01 0.0000000000000000e+00  -4.1409288417521928e-01 -8.0220080593856202e-01 0.0000000000000000e+00  -9.8773072365497705e-01 -1.3608103844825286e+00 0.0000000000000000e+00  -1.2196775598288292e+00 -6.4414080122974815e-01 0.0000000000000000e+00  -7.8566686160596255e-01 -6.4786264722083386e-01 0.0000000000000000e+00  -2.2242970800664839e-03 -3.7467069770012662e+00 0.0000000000000000e+00  -2.0025210263742457e+00 -2.2281812942719643e+00 0.0000000000000000e+00  -1.9813979244872091e+00 -3.7430572759329297e+00 0.0000000000000000e+00  -1.6272709421772693e+00 -4.4336919580854044e+00 0.0000000000000000e+00  -1.6541807370122352e+00 -2.7199566007126128e+00 0.0000000000000000e+00  -3.8027537708194775e-01 -2.9522503803230067e+00 0.0000000000000000e+00  -4.7863987497095317e-01 -4.4036870551161291e+00 0.0000000000000000e+00  -1.3193519335332036e+00 -3.2387081477984956e+00 0.0000000000000000e+00  -1.2290234763731027e+00 -3.8727164739754185e+00 0.0000000000000000e+00  -2.4556675603943909e-01 -5.9529441624811152e+00 0.0000000000000000e+00  -6.8396565648627328e-01 -1.9878589810097536e+00 0.0000000000000000e+00  -1.3132899556758546e+00 -1.9931889961227744e+00 0.0000000000000000e+00  -1.0009270808542616e+00 -2.6259360608328262e+00 0.0000000000000000e+00  -1.6840522665281412e+00 -1.3835216812222442e+00 0.0000000000000000e+00  -6.4732821015975583e-01 -5.4842498196308229e+00 0.0000000000000000e+00  -1.7381924544280607e+00 -5.9666483633603944e+00 0.0000000000000000e+00  -1.2526424212147991e+00 -5.9579713452690344e+00 0.0000000000000000e+00  -7.8751590232165647e-01 -3.8622277857288321e+00 0.0000000000000000e+00  -6.5246458094654525e-01 -3.1745912947944994e+00 0.0000000000000000e+00  -1.7728277079328316e+00 -3.3564070741275498e+00 0.0000000000000000e+00  -2.4978074475030787e-01 -5.2101158568866560e-02 0.0000000000000000e+00  -1.7568089013671337e+00 -3.6293287613918195e-02 0.0000000000000000e+00  -2.5722791998903316e-01 -4.0262534031776855e+00 0.0000000000000000e+00  -2.0850454527590456e-01 -3.3675818519145868e+00 0.0000000000000000e+00  -2.7351518578928519e-01 -1.3025674708185806e+00 0.0000000000000000e+00  -2.8137654708055687e-01 -2.4212307100741941e+00 0.0000000000000000e+00  -1.8007752149841729e+00 -4.8579751622555332e+00 0.0000000000000000e+00  -1.3351948016416222e+00 -5.4565977913182184e+00 0.0000000000000000e+00  -2.4654058506370174e-01 -4.7014763728846241e+00 0.0000000000000000e+00  -2.0025228334915366e+00 -4.1278036421422515e+00 0.0000000000000000e+00  -1.7560810304055012e+00 -3.9934765151736733e+00 0.0000000000000000e+00  -7.3670874299264544e-01 -5.9785966300690125e+00 0.0000000000000000e+00  -7.4934099523845232e-01 -3.5672268102049709e-02 0.0000000000000000e+00  -1.2350312246066215e+00 -2.7055502227096049e-02 0.0000000000000000e+00  -1.3758392469729483e+00 -4.2917580984654364e+00 0.0000000000000000e+00  -4.9434266892868428e-01 -2.2725085296874741e+00 0.0000000000000000e+00  -3.7978264005568124e-01 -5.5878564315735550e+00 0.0000000000000000e+00  -1.5537151819455957e+00 -3.2144649348003136e+00 0.0000000000000000e+00  -1.4477021755650070e+00 -4.7706654576481524e+00 0.0000000000000000e+00  -8.5232725114678576e-01 -2.9643801525965721e+00 0.0000000000000000e+00  -1.0062477042336289e+00 -3.8687215772363155e+00 0.0000000000000000e+00  -1.1386710194976184e+00 -2.9387643606640856e+00 0.0000000000000000e+00  -8.7136624612285718e-01 -5.6131926501214648e+00 0.0000000000000000e+00  -2.0218513868417116e-02 -3.7695511056117065e-01 0.0000000000000000e+00  -2.3369864173653049e-01 -4.7637314089701077e-01 0.0000000000000000e+00  3.9912733580477755e-03 -5.6335576567871675e+00 0.0000000000000000e+00  -1.7800094274227056e+00 -5.4931775210060181e+00 0.0000000000000000e+00  -2.0079383335309173e+00 -3.7148777699170338e-01 0.0000000000000000e+00  -1.7836191639454171e+00 -5.6788343705982369e-01 0.0000000000000000e+00  -1.9959083490158465e+00 -1.8722594679289997e+00 0.0000000000000000e+00  -1.5047898098204060e+00 -1.6251502011358026e+00 0.0000000000000000e+00  -1.4665540936915666e+00 -2.3174914437795522e+00 0.0000000000000000e+00  -1.8141589884899436e+00 -1.0092911654976919e+00 0.0000000000000000e+00  -1.1102633730978277e+00 -5.6016636654189798e+00 0.0000000000000000e+00  -5.8260774530815818e-01 -4.6180283497792157e-01 0.0000000000000000e+00  -1.3751252925868871e+00 -3.6203177732712966e-01 0.0000000000000000e+00  -8.5527566675850075e-01 -1.0812387164421642e+00 0.0000000000000000e+00  -1.1444841800658090e+00 -1.0742194179743356e+00 0.0000000000000000e+00  -4.8585193397489512e-01 -1.2209979334454104e+00 0.0000000000000000e+00  -1.4979759017302712e+00 -1.2115426203555653e+00 0.0000000000000000e+00  -9.9843112366294728e-01 -4.6380885843403097e-01 0.0000000000000000e+00  -1.5410598699634479e+00 -5.5859762817480911e+00 0.0000000000000000e+00  -6.1079182631477302e-01 -5.0637910051637700e+00 0.0000000000000000e+00  -2.0227684975535021e-01 -5.2854834976571645e+00 0.0000000000000000e+00  -1.9935240170588266e+00 -2.6278772014043441e+00 0.0000000000000000e+00  -1.7769848038711642e+00 -2.3555046189642894e+00 0.0000000000000000e+00  -1.9875001829120637e-01 -9.1072440931307308e-01 0.0000000000000000e+00  -1.5975554909938983e+00 -3.9340405599112310e-01 0.0000000000000000e+00  -6.5184033871983615e-01 -9.4317514509638911e-01 0.0000000000000000e+00  -2.1326609008307925e-03 -1.8638690699300529e+00 0.0000000000000000e+00  -1.8309413404405578e-01 -1.6855400868461168e+00 0.0000000000000000e+00  -6.8680242770452893e-01 -1.6987598664267940e+00 0.0000000000000000e+00  -1.4707164404886255e+00 -2.8696697164407721e+00 0.0000000000000000e+00  -5.8701381467860503e-01 -4.0319319420533297e+00 0.0000000000000000e+00  -1.9313028954137437e-01 -2.8031609657540586e+00 0.0000000000000000e+00  -1.3342492793069134e+00 -9.3304819259657934e-01 0.0000000000000000e+00  -1.7965041752270428e+00 -1.7604693422291051e+00 0.0000000000000000e+00  -6.4021628742564940e-01 -4.5913626098167235e+00 0.0000000000000000e+00  -7.3817839848174915e-01 -4.2353557980167205e+00 0.0000000000000000e+00  -9.6388283725183394e-03 -4.8974817983506806e+00 0.0000000000000000e+00  -1.9813214764948214e-01 -2.0827470948695450e+00 0.0000000000000000e+00  6.3724306092488511e-03 -1.1418573252003406e+00 0.0000000000000000e+00  -1.9948427243662834e+00 -1.1010900799958041e+00 0.0000000000000000e+00  -1.9870869778499609e+00 -4.9069530179570737e+00 0.0000000000000000e+00  1.2538638998795835e-02 -2.6304040920393756e+00 0.0000000000000000e+00  5.9974468563281126e-03 -3.3489992311283645e+00 0.0000000000000000e+00  1.9511905658062059e-02 -4.0937561638872717e+00 0.0000000000000000e+00  -1.9952622934581703e+00 -3.3692297983521735e+00 0.0000000000000000e+00  -2.0013115878130252e+00 -5.6299782730524406e+00 0.0000000000000000e+00  -1.8125736377588186e+00 -4.3611974035754448e+00 0.0000000000000000e+00  -1.5765496788121534e+00 -4.0793281281991645e+00 0.0000000000000000e+00  -4.6392699150359007e-01 -3.2818650701692880e+00 0.0000000000000000e+00  -4.9936580274613973e-01 -2.6574253437482200e+00 0.0000000000000000e+00  -8.1636052633418854e-01 -3.3376922181916728e+00 0.0000000000000000e+00  -1.8363325424041568e+00 -2.8040315969222300e+00 0.0000000000000000e+00  -6.5232451343127673e-01 -3.5691558132365562e+00 0.0000000000000000e+00  -4.1888670761770563e-01 -4.7594508692722366e+00 0.0000000000000000e+00  -1.4044179736763784e+00 -5.1359724555509532e+00 0.0000000000000000e+00  -4.0410635201700312e-01 -3.0886562630917891e-01 0.0000000000000000e+00  -1.6252809043550098e+00 -4.8420014981092940e+00 0.0000000000000000e+00  -1.9286750725555712e-01 -5.6595230534492496e+00 0.0000000000000000e+00  -4.1949827337778367e-01 -1.5395396605181326e+00 0.0000000000000000e+00  -5.3175801254270505e-01 -1.7992095528909469e+00 0.0000000000000000e+00  -1.6962213256755660e+00 -3.0506584751600658e+00 0.0000000000000000e+00  -1.6451049137523371e-01 -4.3563378039675635e+00 0.0000000000000000e+00  -1.0001397298591934e+00 -8.5312487671593196e-01 0.0000000000000000e+00  -8.4151517260971043e-01 -3.0991828532371635e-01 0.0000000000000000e+00  -1.1256792425365627e+00 -3.6863622335843720e-02 0.0000000000000000e+00  -1.1861281036587241e+00 -3.0796879532349430e-01 0.0000000000000000e+00  -1.7830207768235368e-01 -3.7216383095995162e+00 0.0000000000000000e+00  -1.4032901327487342e+00 -3.9413985394070914e+00 0.0000000000000000e+00  -1.3415787897664628e+00 -3.5986841195341661e+00 0.0000000000000000e+00  -1.1643344969046883e+00 -3.5179015457280132e+00 0.0000000000000000e+00  -4.1652371046025194e-01 -4.0809385784858083e+00 0.0000000000000000e+00  -1.4726565502135509e+00 -1.9696971695167964e+00 0.0000000000000000e+00  -8.9369745787615362e-01 -4.0904799713710096e+00 0.0000000000000000e+00  -1.8653604408036917e+00 -2.0664854990156831e+00 0.0000000000000000e+00  -1.8340835217557514e+00 -5.1889543206944344e+00 0.0000000000000000e+00  -1.1212367573144684e+00 -4.1356254405521584e+00 0.0000000000000000e+00  -8.9231751759691957e-01 -3.6325464392079940e+00 0.0000000000000000e+00  -1.3085800128842426e+00 -2.9468528894578032e+00 0.0000000000000000e+00  -1.3998647851708670e+00 -5.7403799927028185e+00 0.0000000000000000e+00  -1.6296809672353727e+00 -2.4094597506589488e+00 0.0000000000000000e+00  -1.8536780567164108e+00 -2.6514812091198536e-01 0.0000000000000000e+00  -1.1210695505933857e-01 -4.8703354960055713e-02 0.0000000000000000e+00  -1.8767254295623594e+00 -5.9727687438723853e+00 0.0000000000000000e+00  -1.8279163918589940e+00 -3.7118779387212961e+00 0.0000000000000000e+00  -3.4527963701563791e-01 -3.4909160128452177e+00 0.0000000000000000e+00  -1.8594032764747042e+00 -1.3338366731344655e+00 0.0000000000000000e+00  -1.6520214864042266e+00 -1.0837437424555008e+00 0.0000000000000000e+00  -1.4829059625423044e+00 -5.8748226163737527e-01 0.0000000000000000e+00  -3.3392940666599474e-01 -4.3210947814088376e+00 0.0000000000000000e+00  -1.6574863424619339e+00 -1.6932843193845120e+00 0.0000000000000000e+00  -1.6319489440603693e-01 -4.9803743171970227e+00 0.0000000000000000e+00  -7.9818395280634236e-01 -5.3658098807654593e+00 0.0000000000000000e+00  -9.9721267675370917e-01 -2.9076652415590356e+00 0.0000000000000000e+00  -1.1606762852185799e+00 -1.3679187349318924e+00 0.0000000000000000e+00  -1.3117412614147732e+00 -2.3054852795813945e+00 0.0000000000000000e+00  -1.3207646279367029e+00 -1.6922048188934355e+00 0.0000000000000000e+00  -8.4353347232488118e-01 -1.3528119931758651e+00 0.0000000000000000e+00  -1.1522180217144549e+00 -2.6124360375919262e+00 0.0000000000000000e+00  -8.5875959343775643e-01 -2.6316156114424123e+00 0.0000000000000000e+00  -7.0412154410348982e-01 -2.2998540947103825e+00 0.0000000000000000e+00  -5.2549401997652334e-01 -5.6817555266120747e+00 0.0000000000000000e+00  -4.9929849348294170e-01 -5.3836975509082787e+00 0.0000000000000000e+00  -5.2476871950854387e-01 -2.9783424830388907e+00 0.0000000000000000e+00  -7.0173064888442582e-01 -2.9064695679491845e+00 0.0000000000000000e+00  -1.6377540018894297e+00 -5.9592491606296516e+00 0.0000000000000000e+00  -1.6810863182397671e+00 -5.7070169758995961e+00 0.0000000000000000e+00  -2.3055233584004825e-01 -3.0815059960337789e+00 0.0000000000000000e+00  -1.5395779898176520e-01 -1.1878815268154306e+00 0.0000000000000000e+00  -1.1288822167448189e+00 -3.2470389715673718e+00 0.0000000000000000e+00  -5.5589350121399628e-01 -1.4988507136199294e+00 0.0000000000000000e+00  -1.1721732474307263e-01 -2.4251291506800934e+00 0.0000000000000000e+00  -1.2316605782131598e+00 -4.3182310808090918e+00 0.0000000000000000e+00  -3.2892768497124802e-01 -1.0385510395970154e+00 0.0000000000000000e+00  -1.8847720045046288e+00 -3.1968808841090288e+00 0.0000000000000000e+00  -1.6484131213984381e+00 -3.4859519883310131e+00 0.0000000000000000e+00  -3.6212660372740296e-01 -3.8393703138135917e+00 0.0000000000000000e+00  -6.4701449372181807e-01 -3.9512847479177299e-02 0.0000000000000000e+00  -6.9386364869359629e-01 -2.7499552690485668e-01 0.0000000000000000e+00  -3.5408957568057808e-01 -2.6662276839326942e+00 0.0000000000000000e+00  -3.3163345261775729e-01 -2.1515431904880131e+00 0.0000000000000000e+00  -1.3272398832760204e+00 -4.5838749994769694e+00 0.0000000000000000e+00  -1.1914951847896031e+00 -5.3610198350883307e+00 0.0000000000000000e+00  -1.2616580618672524e+00 -5.6988660576012657e+00 0.0000000000000000e+00  -1.6965970858468660e+00 -3.7546828749877954e+00 0.0000000000000000e+00  -1.4425186605276570e+00 -2.5719193724006764e+00 0.0000000000000000e+00  -9.7917171322150753e-01 -1.1239140418943887e+00 0.0000000000000000e+00  -6.1495560270184335e-01 -4.3315252832853934e+00 0.0000000000000000e+00  -7.4583414760338440e-01 -5.7076638088606515e+00 0.0000000000000000e+00  -1.0421135504887181e-01 -3.1851740414782785e+00 0.0000000000000000e+00  -6.1747197756192518e-01 -5.9588166691927444e+00 0.0000000000000000e+00  -1.9053046115347341e+00 -3.9430776688171645e+00 0.0000000000000000e+00  -8.9784058116633744e-02 -5.4543428702176060e+00 0.0000000000000000e+00  -1.3578842183062885e+00 -6.7272484500445318e-01 0.0000000000000000e+00  -1.3357395402075886e-01 -6.7796574549021060e-01 0.0000000000000000e+00  -1.4379231716982188e+00 -3.3880397281658228e+00 0.0000000000000000e+00  -1.7166577225624184e+00 -4.6460588630183253e+00 0.0000000000000000e+00  -1.8725972889899454e+00 -4.6029889017593826e+00 0.0000000000000000e+00  -1.7080277154046677e+00 -5.0610286858124551e+00 0.0000000000000000e+00  -1.8611215825249423e+00 -5.7304313386335863e+00 0.0000000000000000e+00  -1.4622823503443527e+00 -5.3602782942568874e+00 0.0000000000000000e+00  -1.1055304510381650e-01 -4.6761371063444814e+00 0.0000000000000000e+00  -2.9764849691797629e-01 -4.9403931965836714e+00 0.0000000000000000e+00  -9.2343280934437377e-01 -3.1885899591089903e+00 0.0000000000000000e+00  -1.1723289177062877e-01 -3.9540452631864333e+00 0.0000000000000000e+00  -1.7060000149968693e-01 -2.2924097533461193e-01 0.0000000000000000e+00  -6.5660055633315428e-01 -6.7452388824502907e-01 0.0000000000000000e+00  -1.8759009810801888e+00 -2.5346579395374289e+00 0.0000000000000000e+00  -1.2541481398043616e-01 -5.9687257330202801e+00 0.0000000000000000e+00  -1.4315919303935132e+00 -3.1167510398516867e+00 0.0000000000000000e+00  -1.0638880763779905e+00 -2.3370209725114258e-01 0.0000000000000000e+00  -1.4604262280114448e+00 -8.2321934914035666e-01 0.0000000000000000e+00  -1.7218109914487716e+00 -3.3504766453664891e-01 0.0000000000000000e+00  -1.5831392906822193e+00 -2.9557039359221977e+00 0.0000000000000000e+00  -1.3351426633938954e+00 -4.8902073286849763e+00 0.0000000000000000e+00  -1.3128618686391940e+00 -4.0900952385824052e+00 0.0000000000000000e+00  -1.4763001252353318e+00 -4.5011698155405995e+00 0.0000000000000000e+00  -5.9397623586906556e-01 -2.4568966804539691e+00 0.0000000000000000e+00  -1.6509092113355350e-01 -1.4287029247776679e+00 0.0000000000000000e+00  -1.6904180424481661e+00 -4.2065628875983716e+00 0.0000000000000000e+00  -1.6864446749412192e+00 -5.3103784500640074e+00 0.0000000000000000e+00  -1.8994866941627970e+00 -5.4179006460511134e+00 0.0000000000000000e+00  -3.4822373198803080e-01 -3.1914316969373417e+00 0.0000000000000000e+00  -5.3100249278955125e-01 -9.5186550195378095e-01 0.0000000000000000e+00  -1.8778944609553130e+00 -3.8425022330478370e-02 0.0000000000000000e+00  -1.3714834721524385e+00 -5.9453416208343848e+00 0.0000000000000000e+00  -8.8169446924406114e-01 -2.4165274582597516e-02 0.0000000000000000e+00  -3.8944172439780456e-01 -4.1939941719547881e-02 0.0000000000000000e+00  -1.6282222651662399e+00 -3.2893789200824537e-02 0.0000000000000000e+00  -1.3683527302730665e+00 -4.6278037533638482e-02 0.0000000000000000e+00  -1.1178566669664971e+00 -5.9588908895750041e+00 0.0000000000000000e+00  -8.7333297857264514e-01 -5.9614573450261990e+00 0.0000000000000000e+00  -3.5938070412599155e-01 -5.9688472926343232e+00 0.0000000000000000e+00  -1.7163541568792957e+00 -8.4968960608100741e-01 0.0000000000000000e+00  -5.3328379623670208e-01 -6.9744637830395184e-01 0.0000000000000000e+00  -3.4794482012212979e-01 -5.5690508624529789e-01 0.0000000000000000e+00  -4.9623711484757549e-01 -4.9573349201157706e+00 0.0000000000000000e+00  -1.5182845818859962e+00 -4.9826803745615917e+00 0.0000000000000000e+00  -9.8841190589954622e-02 -3.5068448593028001e+00 0.0000000000000000e+00  -6.5978159989081753e-01 -3.8273547549356461e+00 0.0000000000000000e+00  -2.9996322762607330e-01 -1.6374207017969729e+00 0.0000000000000000e+00  -4.0047647162184341e-01 -2.4162963282001648e+00 0.0000000000000000e+00  -4.6803419678180885e-01 -2.0275511845320260e+00 0.0000000000000000e+00  -5.7075620848300090e-01 -3.3746945974212341e+00 0.0000000000000000e+00  -2.9997777647175350e-01 -5.7725578999489464e+00 0.0000000000000000e+00  -3.7347948950805915e-01 -5.346