<?xml version="1.0"?>
<VTKFile type="UnstructuredGrid"  version="0.1"  >
<UnstructuredGrid>
<Piece  NumberOfPoints="6326" NumberOfCells="12257">
<Points>
<DataArray  type="Float64"  NumberOfComponents="3"  format="ascii">0 1.5 0  0 0 0  1 0 0  1 1.5 0  0.35 0.65 0  0.65 0.65 0  0.65 0.35 0  0.35 0.35 0  0.35 0.96 0  0.65 0.96 0  0.65 0.66 0  0.35 0.66 0  0.5 0 0  0 0.75 0  1 0.75 0  0 0.375 0  1 0.375 0  0.5 1.5 0  0 1.125 0  1 1.125 0  0.25 1.5 0  0.75 1.5 0  0.375 1.243888888888889 0  0.7401086956521739 1.222572463768116 0  0.25 0 0  0.75 0 0  0 1.3125 0  0 0.1875 0  1 0.1875 0  1 0.5625 0  0.1848214285714286 0.5 0  0.8174107142857143 0.4687500000000001 0  1 0.9375 0  0 0.9375 0  0.65 0.8100000000000001 0  0.35 0.8100000000000001 0  0.5 0.96 0  0.1766238683127572 1.21875 0  0.822642375995101 1.047501020616452 0  0.7939338235294118 0.2018382352941176 0  0.1691964285714286 0.2812500000000001 0  0.5 0.35 0  0.375 0.1535714285714286 0  0.6048949210808516 0.1621878909653493 0  1 1.3125 0  0 0.5625 0  0.1640714285714286 0.84375 0  0.1762692062917373 1.03105178667178 0  0.8359285714285715 0.84375 0  0.5621023945474183 1.311129826715227 0  0.8371875000000001 0.655 0  0.5750000000000001 1.127791931175133 0  0.1541601069440535 0.6706504438581293 0  0.125 0 0  0.1472250502829418 1.376616599622744 0  0.875 1.5 0  0.8125 1.358881548190251 0  0.5 0.66 0  0.5 0.65 0  0.65 0.5 0  0.35 0.5 0  0.2276848339686157 0.1458213145438177 0  0.3085985630593322 1.106691146327673 0  0.875 0 0  0.375 1.5 0  0.2909251682594172 1.361414428952837 0  0.8714485246915223 1.177499722658573 0  0.9029912728918508 0.28125 0  0.444309425661123 1.085550489893153 0  0.625 1.5 0  0.4346130758247274 1.371944444444444 0  0.7830629592613936 0.3397919143065746 0  0.6968622084092321 1.081604367811559 0  0.6866668860416248 1.338331850546329 0  0.375 0 0  0.625 0 0  0.125 1.5 0  0.7571283548077703 0.748845218306158 0  0.7497099213182619 0.5701137366539539 0  0.2558692064407742 0.7350000000000001 0  0.2964140829763539 0.2433747793917957 0  0.487623348851111 0.2198890377440982 0  0.1158974935208339 0.1778872531899508 0  0.4913641269692496 1.214030859276334 0  0.8920530408454942 0.1240479727696705 0  1 1.40625 0  0 0.46875 0  0.1214285714285714 0.3945950255102041 0  0.2365058822631193 0.3763548342152661 0  0.2456138461425831 0.5990025036099956 0  0.4770810139768792 0.1090028186854997 0  0.7324133588990726 0.885 0  0.2375677858915855 0.9330117235698416 0  0.6875 0.09008767814013303 0  0 0.09375 0  0.8844805807868602 0.9492246725472735 0  1 1.03125 0  0.5834655682110902 0.2666566655049612 0  0.6885561374079259 0.2337813098434742 0  0.7916743749039853 0.09563647865846153 0  0.8786016838893559 0.3833986205581952 0  1 0.46875 0  0.65 0.425 0  0.8882832664189577 0.5553994528860708 0  0.2722741679154312 1.259236683937199 0  0.1131818206155013 1.125020434123634 0  0 1.03125 0  0 1.21875 0  0.09912013537260758 1.285987520622005 0  0.08808200402380065 0.984375 0  0.6077660994283478 1.400831062100319 0  0.6413197405572436 1.247181014921799 0  0.3125 0.07678571428571428 0  0.2115509529508847 1.12290046025129 0  0.08712689786059351 0.515625 0  0.7408460906408083 0.9948227293752155 0  0.9102138337299758 1.088784707834322 0  0.7784947248552031 1.133678645592879 0  0 0.28125 0  0.9121087256808306 1.359375 0  0.3955440542548779 0.2603334657204607 0  0 1.40625 0  0.8275600060378382 1.263506047310984 0  0.1028654383262875 0.7604209991457549 0  0 0.84375 0  0.2594390176916248 0.8401147857472698 0  0.8910305066923369 0.7497383215897779 0  1 0.84375 0  1 0.65625 0  0 0.65625 0  0.2765148843081602 1.018447946771745 0  1 0.09375 0  1 0.28125 0  1 1.21875 0  0.5286689024592001 1.047843308650617 0  0.5661821483107946 0.0750489168121735 0  0.9201380862399812 1.265625 0  0.7403885126828781 0.660020326953331 0  0.1513301897243842 0.09052383276278524 0  0.5171646806951644 1.410513970235298 0  0.6570217268909305 1.160344078183039 0  0.7394087923884696 1.410909707163877 0  0.1597324233372193 0.5835719083714564 0  0.08092896858221162 0.6222466888400674 0  0.7406947469126506 0.420129886084974 0  0.3854925570702976 1.154143195318199 0  0.906617561036541 0.4680945575311649 0  0.6172348635009329 1.042458313459878 0  0.2141683776785341 1.322634117574637 0  0.08459821428571429 0.2594498612289851 0  0.2674107142857143 0.461898043123306 0  0.4777250723534856 1.298283651036468 0  0.0820357142857143 0.8902640971599273 0  0.8067693018529518 0.9210846151560834 0  0.9179642857142858 0.8698994370782795 0  0.9184720779953784 0.6714727786019703 0  0.8125 1.5 0  0.3592454149918304 1.414762375733811 0  0.08273791947095149 1.203458670678841 0  0.1560659569667871 0.9252301420776499 0  0.1875 1.5 0  0.2241548454996505 1.417032255526303 0  0.7569162437644694 1.300547627237065 0  0.8756778333016498 0.2041689303975273 0  0.425 0.96 0  0.3683938696687017 1.044379450572799 0  0.3115202260566392 1.187984438803453 0  0.9375 0 0  0.0625 1.5 0  0.0625 0 0  0.9264280023005735 1.438362336400765 0  0.06564386585944831 1.359375 0  0.178795192836391 0.7442669694401668 0  0.84375 1.429440774095126 0  0.7242268907236241 0.1616684353669041 0  0.5713544697069139 1.207931597011395 0  0.4022451707491219 0.07678571428571428 0  0.07606434792255712 0.1108647246227404 0  0.425 0.65 0  0.425 0.66 0  0.575 0.66 0  0.575 0.65 0  0.7470006991683099 0.4950137159009523 0  0.35 0.885 0  0.575 0.35 0  0.35 0.7350000000000001 0  0.65 0.575 0  0.65 0.7350000000000001 0  0.35 0.425 0  0.35 0.575 0  0.425 0.35 0  0.575 0.96 0  0.65 0.885 0  0.09374999999999999 1.430677538716259 0  0.3013424169843079 0.1496963715576231 0  0.1849438256048778 0.2077067101869471 0  0.2388424169843079 0.07291065727190887 0  0.07173640644322976 1.059854456790638 0  0.06419661411279236 0.6957315727649066 0  0.2825570108498748 0.3171166010622856 0  0.6875 1.5 0  0.3310674883674913 1.301295954813875 0  0.9454023739255069 0.796875 0  0.2864246282817768 0.5375 0  0.4375 1.5 0  0.06852058805486823 0.3364225748984086 0  0.05473106199790181 0.421875 0  0.7135929719652974 0.3065923478857669 0  0.8888550555744522 1.020570544533449 0  0.407532026105657 1.306647883491885 0  0.5625 1.5 0  0.8212431665208667 0.5839139336079717 0  0.8449063139999805 1.113303479705628 0  0.9364744114754 1.153086685838695 0  0.8050610353937171 1.197823767658308 0  0.9460861604217302 0.9812544539636752 0  0.3125 1.5 0  0.5395508056360561 0.1390491298940069 0  0.8250510836080026 0.2736954572484136 0  0.7668593251606742 0.8209321371112722 0  0.2424812269132693 1.196392022067605 0  0.4625809056443893 0.2879153087548867 0  0.5074314933609925 1.113549617627778 0  0.4625 1.018492692938468 0  0.2265244654934102 0.6688274228040376 0  0.9413055286111207 0.6035716882072499 0  0.1875 0 0  0.2919459712016241 1.430528396467327 0  0.9416388533356789 0.2241755975156681 0  0.9514956364459254 0.328125 0  0.1856644334506817 0.4277275857546619 0  0.8242412700826193 0.7250273480299602 0  0.8053784643420075 0.4029014938645147 0  0.9464872489384214 0.5220448903410788 0  0.2309291709733608 0.2560108789995744 0  0.04721180949295774 0.796875 0  0.9349436788066534 0.06941254746223105 0  0.1288399026521283 0.46320589278353 0  0.6737967094059217 1.403137079691092 0  0.7518314060180149 0.2527335563443291 0  1 0.421875 0  0.4237656699886009 0.1995451747809214 0  0.553676710930477 0.2061139150875385 0  0.6797195785728654 1.018378818678655 0  0.7613667893807466 1.070507292292808 0  0.1631785834210849 1.439674026820779 0  0.4540144981165559 1.156533259031902 0  0.4213304861750082 1.43630421090153 0  0.8625085973885606 1.317901263313451 0  0.6273905302568502 1.310966158584549 0  0.8046776547721317 0.9855519749551188 0  0.940631785081856 0.3984375 0  0.6999676548244024 1.272023881363465 0  0.8542595457271082 0.0660473565678811 0  0.1043836826697193 0.8234485419017311 0  0.2101468681538403 0.7997381985269827 0  1 0.140625 0  0.8361926167440458 0.1543650292605365 0  0.4375 0 0  0.5625 0 0  0.3125 0 0  0.6875 0 0  0.9375 1.5 0  0.8125 0 0  0.2864754521352191 0.6476955015681203 0  0.6322970047049524 1.103031773484618 0  0.7209532103538135 1.161565948317914 0  0.7017180067223532 0.6105745033213139 0  0.2914626200609601 0.4048544181949066 0  0.6996123697590465 0.7725000000000001 0  0.231159419371175 1.062667568780693 0  0.1316408306563898 0.3321607570435455 0  0.5219434332956034 0.2711458164626565 0  0.6467041741612273 0.2844016514004487 0  0.2995462702051331 0.9225 0  0.6291631828128607 0.06383582160471275 0  0.8442223102136631 0.33225889816149 0  0.7003913795738027 0.5342940179879695 0  0.1015914133185109 0.05589991020659692 0  0.1637045917320031 1.282145618966898 0  0.2209883146839276 0.3167727253696408 0  0.3029346032203871 0.7725000000000001 0  0.5262767027548977 1.262912953352655 0  0.4292200831019913 1.213519056511027 0  0.0491162294897297 1.253023057223217 0  0.7067688852543174 0.7114634584135495 0  0.6974370307130239 0.4614800360643829 0  0.6644963707081416 0.1471028116907735 0  0.2620494584724848 0.1945980469678067 0  0.3525845718815589 0.2132424437773113 0  0.3378418327522833 0.2893324814869065 0  0.8406284803721253 0.7833507443827437 0  0.4922425048086627 1.356227010933077 0  0.3658763125187799 1.352883654261354 0  0.708610094744571 0.8309083836866393 0  0.7293871992435489 0.3628256245704534 0  0.1685954763545719 0.1507135716553993 0  0.05670661476910926 0.1677176798381019 0  0.2095563539353029 0.552977558900388 0  0.8860298130099459 0.6227735440522468 0  0.8650085945175792 0.8942759547053409 0  0.8894766033391922 0.81752852889196 0  0.46875 0.05034024765419566 0  0.799037940308298 0.527007148879893 0  0.2222243267665793 0.991601574338417 0  0.2006969871961888 0.8884818247236804 0  0.7869100209624815 1.44646667070636 0  0.9364909965206036 0.9244491479145617 0  0.05658672689496352 1.148181569262383 0  0.53166669626361 1.165973461661098 0  0.1822077846795723 0.3586844811385232 0  0.9419619937199086 1.211338142823728 0  1 0.703125 0  0.9455712217622753 0.7265625 0  0.1303148549620776 1.068361279539146 0  0.1349739919492207 1.1786056870
[...]
<PointData  Scalars="f_670"> 
<DataArray  type="Float64"  Name="f_670"  format="ascii">0.0000000000000000e+00  0.0000000000000000e+00  0.0000000000000000e+00  0.0000000000000000e+00  9.9999999999999967e-01  1.0000000000000007e+00  9.9999999999999989e-01  1.0000000000000000e+00  1.1440065926280530e-17  -1.5432208509192444e-19  5.7899035895406469e-15  3.0308991767622085e-16  0.0000000000000000e+00  -1.1881157590346794e-18  -4.4718555715170638e-17  2.2728378258106427e-18  1.1571834419940537e-16  1.1259564088888429e-18  -7.3119485002951401e-20  -3.2824793588459459e-18  8.9605108628602626e-21  -2.5370966715104689e-20  2.7262328020527023e-03  3.4490170861037031e-03  -1.8432948170327335e-18  0.0000000000000000e+00  2.9533458855403234e-19  1.8593542951353252e-18  6.2436123496046192e-17  -3.7197095026922169e-18  4.1373431983812686e-01  4.1555157798816045e-01  1.1787204019157138e-17  0.0000000000000000e+00  4.9932002168589145e-17  1.9818284994407461e-17  0.0000000000000000e+00  3.2583732769214217e-03  1.0543434512376585e-02  2.6069501899552955e-01  2.9217272301611513e-01  1.0000000000000000e+00  3.3634556902591911e-01  3.6820637976374698e-01  7.2924833537939980e-19  3.6480765522727722e-18  5.5780298627563889e-02  1.1918271536103107e-02  5.5620891206141679e-02  1.9040518138721105e-03  2.2395396868477127e-01  3.1553130498341722e-03  1.9443975326280641e-01  0.0000000000000000e+00  9.2299237162600945e-04  1.7210201256765559e-20  1.2635458760611598e-03  1.1102230246251565e-16  1.0000000000000000e+00  9.9999999999999989e-01  1.0000000000000002e+00  2.0683926233305955e-01  5.4580761993581446e-03  0.0000000000000000e+00  7.0200147412621527e-21  1.4567791684451858e-03  3.5709759484697659e-03  1.6188978808755880e-01  2.7806521593694367e-03  1.1370216584399665e-18  1.3072679271362202e-03  4.5487030554929814e-01  6.2016050520376830e-03  1.7284951536002658e-03  1.0861266856256687e-18  0.0000000000000000e+00  0.0000000000000000e+00  1.3633850685838381e-01  5.4851949134658318e-01  1.5463660490460776e-01  4.6706534622702561e-01  5.5874228275415172e-01  1.2699169040676378e-01  2.6122654486683307e-03  8.3052314903450247e-02  2.6501672543842253e-19  -6.0880816650698845e-18  2.5568311542253747e-01  5.4367353450745237e-01  4.8266365217252105e-01  2.5697270771938130e-01  3.0066020591781702e-02  2.3636099056732744e-02  1.6771803303910146e-01  -1.8322547875529191e-18  1.8880325735398332e-02  -2.5907499108990604e-18  6.8338117128485110e-01  4.6834016390412664e-01  1.2347357408815544e-01  2.5287907335550625e-01  1.1576644526618578e-16  1.0000000000000002e+00  2.1473949975494730e-01  2.8061228986064769e-03  4.7160594171089072e-03  0.0000000000000000e+00  -4.3915269031621562e-20  1.3770945105151138e-03  1.1483483770929110e-02  1.0244733092668907e-03  2.7506686774335693e-03  1.4269299024493770e-01  6.2775180140240937e-03  1.7652488247026793e-01  1.2827206486686105e-02  5.1585684378255272e-03  5.8755118500220154e-03  0.0000000000000000e+00  6.9877769679541481e-04  6.4721658765377788e-01  0.0000000000000000e+00  2.4062462737442785e-03  7.5888286934487695e-02  -5.5646642012521249e-18  4.9378377178111811e-02  8.5435774319707364e-02  0.0000000000000000e+00  9.0294223125507620e-20  1.5622615554137441e-18  9.9228475691211983e-03  5.6823722023560474e-19  -3.2734053512488781e-18  5.2078592302736676e-19  2.0957557228747821e-03  1.7040215023249566e-01  1.3259383949981776e-03  3.4735491294763310e-01  8.4867286955826973e-02  9.0812157497292920e-04  3.9413114673287715e-03  8.8391949470846218e-04  2.9577206164553188e-01  1.2548341088994830e-01  6.4472869158155532e-01  3.5049340498511513e-03  1.9734099522865867e-01  3.4795903417738114e-03  1.7901953753914138e-03  1.3174236285696878e-01  6.8050398619868679e-01  1.9916437985324571e-03  2.3238464216085788e-02  2.9318027028818344e-02  2.7469192618028538e-02  1.0243518015584942e-01  -7.2930765946063900e-20  8.8439584771953037e-04  2.0967702008043935e-03  2.7205710054131086e-02  8.9605108628602626e-21  7.7497247095609223e-04  2.1596550804070256e-03  1.5632178723258400e-01  1.2873308231914607e-19  3.9722115643754611e-03  3.8583799329165174e-03  2.1448461252699519e-19  9.1802050708676681e-21  -6.1384559858752002e-19  2.3706478700868808e-04  5.3796050920665566e-04  1.3261117661638680e-01  5.2206043426110957e-04  2.7724653042936709e-01  2.8001850460858857e-03  1.6902094560249187e-01  5.1996714049729192e-02  1.0000000000000000e+00  0.0000000000000000e+00  2.7755575615628914e-17  1.0000000000000000e+00  6.2408700978680109e-01  2.5877189899438279e-19  1.0000000000000002e+00  6.2205237655928170e-18  1.0000000000000000e+00  1.6443518423453232e-16  9.9999999999999989e-01  9.9999999999999978e-01  1.0000000000000000e+00  1.7784831928633777e-18  0.0000000000000000e+00  3.3959665795627801e-04  2.7710827625513629e-01  2.4015447666851394e-01  1.0667664926544490e-01  5.3096734237945368e-03  7.1770904705455371e-02  5.9914139271273381e-01  -1.1164304099033086e-18  2.1659924688057167e-03  3.2244802435005993e-02  7.2007667122571961e-01  0.0000000000000000e+00  1.2929300868509683e-01  1.1368060003734859e-01  5.8774671352179764e-01  1.0330230264019353e-02  1.9895366729335089e-03  0.0000000000000000e+00  3.3780981756151623e-01  6.2351816423444513e-03  2.3746601023245202e-03  3.8617412931071212e-03  7.7039718474753664e-03  1.2551205043354461e-20  3.3065348368334602e-01  2.9609908348741792e-01  6.7837438943522010e-02  4.0190280720610056e-03  7.7549871915648394e-01  2.7032860219996444e-03  1.5712993659227925e-03  2.8426376070867615e-01  9.6421343347001365e-02  0.0000000000000000e+00  7.0508224125437704e-04  7.8890781287550574e-02  8.9799866175787071e-02  4.2282170574918815e-01  1.5200662005069529e-01  4.3993633873836463e-01  1.0592796040006525e-01  3.7663879702843434e-01  2.8436670661967998e-02  2.7961847064576620e-02  2.7926245527003130e-01  1.0049698864236542e-03  4.0299832791913359e-01  1.8763628051573359e-18  4.8185390251699556e-01  5.0979605991271815e-01  6.6545823442756965e-03  8.5163026978581653e-03  4.6080369678980573e-04  2.9136335955835370e-03  6.5377379151156860e-04  1.4256610090414969e-03  1.9948121500677550e-03  1.7111381858923677e-02  1.2160637234297453e-01  2.5845803539627280e-03  5.9632081840914106e-02  4.8457410528319596e-02  8.5864291210110327e-02  0.0000000000000000e+00  1.5727844456191950e-01  0.0000000000000000e+00  2.0746140332058982e-18  -9.6014902972727176e-19  8.2032444989994504e-18  -2.8721944952682607e-19  4.0878976536077628e-19  4.3886159389993018e-01  4.0840040835807122e-03  4.6646970051745134e-03  6.3970245744147713e-01  7.5235110365583691e-01  6.7314028535241432e-02  9.1061469139440306e-03  2.5389807110552459e-01  7.2083481124623694e-01  6.7626034733107165e-01  1.4238189189285816e-02  1.3409633219702904e-01  3.0504697789202956e-01  7.7682041469646124e-01  3.4988407410208110e-02  2.0564612106356342e-03  4.3910327128550086e-01  6.4623447103296774e-02  2.2933761179443121e-03  2.7639854459284110e-03  9.1487691086704955e-04  1.7392881553374812e-01  8.1049561510412316e-01  2.9661134174494685e-01  3.2159995434419242e-01  4.6744205250708537e-01  6.6447604583680664e-01  9.0141013138874029e-02  1.4458886841182998e-03  1.5461127352734739e-03  3.9163808840290013e-02  6.3739535172422213e-01  1.5807093273405101e-01  5.8216290780687650e-02  4.4639074216549990e-01  1.7883582042459270e-01  3.2864240311558782e-02  5.2927589783213123e-02  1.1616289409025299e-01  4.4411787081348708e-01  1.5547066579289856e-02  3.8812095953071030e-02  4.7847984719999502e-04  1.4141831582455088e-02  2.2049899457759394e-03  2.8253257247631389e-03  3.8366849765091154e-01  1.4346884648034999e-03  8.1958763969638057e-19  5.0939071144474789e-02  7.9261636057179393e-03  3.6679330561565156e-03  1.9634636745009779e-01  -4.0303980391842432e-19  -1.5934396295416757e-19  2.9275719790150134e-01  1.5021759618598209e-03  8.2826225178224341e-02  5.0856098248280310e-03  5.2480336214785241e-03  1.3974104100954178e-02  3.9894899502433606e-01  2.9474280155406268e-01  4.1669644605808118e-03  0.0000000000000000e+00  3.8535852523855563e-01  2.7135356108895742e-03  5.0854030646924131e-01  7.6152602281423357e-02  1.3778785453603772e-03  4.6914480674743536e-04  4.6303360818571637e-04  1.3743180845105529e-01  3.0116535798239935e-01  1.8454216201435275e-01  5.6945683588813534e-01  4.4084497590848551e-02  1.6558126300607538e-02  6.9920213263103415e-01  1.0699381368112458e-01  -1.7094487075699037e-18  2.0613168242460445e-01  2.3998999013004424e-01  1.9305367021741859e-01  3.2703884057890248e-01  5.7924988788850829e-02  1.4768074429625228e-01  2.0734938849732024e-03  2.9876812993449658e-03  3.4531108447360694e-03  2.4174772479784051e-03  -3.2824793588459459e-18  8.1296827792028056e-02  1.1866977726515539e-01  3.9871065792780019e-02  4.8037193930510933e-04  -1.4955238128329062e-17  2.3089295323667196e-03  6.4145786167580819e-04  1.0516918302684872e-03  4.2870125049410054e-02  2.1040708484069034e-01  4.6265166445290376e-03  1.9843760690605564e-02  2.0395842416350788e-03  2.4303321516397841e-01  5.1913679905561585e-04  2.2557608898274979e-02  8.0576436403097218e-01  2.3906262876553256e-03  1.4590888458538100e-03  1.0000000000000002e+00  1.1111559931939351e-01  4.7535870042475492e-04  2.4003518234259370e-02  5.2003123749643065e-03  1.1118251347344286e-02  1.9975759222973358e-02  2.1059143843764960e-02  -1.0252344306353990e-18  8.5332594006947262e-04  2.9243481047332766e-04  6.5057645858088565e-04  0.0000000000000000e+00  1.8185916272206724e-03  1.6502758428618072e-01  7.6101715486748725e-02  6.9326249773246335e-02  2.3794798044314106e-01  1.8681117951806939e-01  2.8742729776582754e-01  4.4457137867865793e-18  9.9374590206959181e-03  6.5471698926184464e-03  3.1735496619059150e-03  5.3287390067275914e-03  6.2181276565153399e-03  2.3918716426480236e-03  3.8687542767625226e-02  4.5220481885041472e-04  9.9999999999999989e-01  7.8247780116298141e-02  -1.3731343886202098e-19  2.6013940988341995e-04  8.7928120782197715e-03  6.2473759659979226e-03  2.3912117894564172e-03  8.2064789513377912e-03  4.2833357337760860e-03  9.0951150421837101e-02  2.8125069588956311e-03  1.8190784607843482e-03  6.2434939300421766e-01  -2.4340631315832719e-21  1.4601949930833603e-03  6.7064772352684279e-02  0.0000000000000000e+00  3.3891253555978690e-02  5.1508066461000768e-01  1.2071415767098760e-02  3.1972278003283123e-03  3.2966621096618398e-01  0.0000000000000000e+00  8.3476416865973013e-01  1.3202584839124203e-03  -3.9315162738748221e-19  8.1288861779979948e-01  3.8709370685472741e-02  1.3377041009534796e-01  9.7125929816462814e-02  1.2592664443650782e-04  9.4375899074488276e-03  7.8084343275781655e-03  0.0000000000000000e+00  1.9129668044364994e-18  7.5718096314598659e-20  7.8927616281498900e-19  1.1805902820398430e-18  9.2659222411156039e-19  7.1675590543366177e-18  1.0872061258108618e-17  6.4271494139920447e-18  1.5710985770050947e-18  0.0000000000000000e+00  3.8544279725153437e-18  0.0000000000000000e+00  0.0000000000000000e+00  7.2924833537939980e-19  3.2687598305773241e-17  0.0000000000000000e+00  2.1127511852823775e-02  1.4847374452450256e-03  4.7866330583583635e-03  9.7027236432210631e-02  1.4163724485280607e-01  2.0477868066291618e-01  8.1906745600769895e-02  2.2245905992772863e-01  1.0692591017394729e-03  4.5973674746291743e-01  3.8419539521977281e-01  1.1807909536991536e-03  2.2270889274626938e-03  7.4745847895069481e-02  2.7668892043564257e-02  4.3647510850924774e-03  8.8422734484747689e-02  8.3458674972301599e-04  1.5945053632742397e-02  1.0345532501514626e-03  9.5195884637805210e-04  6.0874486496770364e-01  8.0920952014888881e-01  5.2083852780499706e-01  3.2283642706421316e-04  8.3858541856467728e-01  4.2980844907017351e-01  3.3377464769168909e-03  4.2347731896208224e-03  3.1963887861939646e-03  1.1884492974607826e-01  1.0378107470422245e-01  2.4736190083678375e-03  3.6691037139438282e-01  3.1568445646030718e-01  1.9618224397520473e-01  5.6451643356040464e-02  2.0753348391440840e-01  4.3623718491643426e-02  6.7723862585298226e-03  3.4342493626150728e-03  4.9509133407687833e-03  1.1912690928479800e-03  8.2148988861462580e-01  4.9579959612509189e-03  3.5647178306320872e-03  2.1672679989673851e-01  7.5216979836003750e-01  6.5852447389556049e-02  5.6286404470532729e-02  2.7594560152975353e-03  4.7043740205912586e-02  5.1262587178959793e-04  2.1023385131734479e-01  1.2466747788230316e-01  4.6447720293912897e-04  1.0501702062131984e-03  1.2529589211406262e-03  1.5685621802576366e-01  2.9311686263426232e-03  1.9677629141368339e-02  1.9488965831094174e-01  2.0388861701599281e-01  2.4550717369660244e-01  5.3131351993495579e-01  5.9985721903255074e-02  1.7392830626044595e-03  2.4695034630321652e-03  1.6665466631946692e-03  1.8001189683829290e-03  2.1062336105419463e-01  1.2913585630762581e-02  9.3087820282287084e-02  3.6552152107978124e-02  3.1474274610977155e-03  7.0126396129362015e-02  2.7548160461104254e-01  6.8733541118285086e-04  2.0357230021545439e-01  3.4102200405661433e-04  8.1620781871319104e-03  3.9423088404690881e-01  8.4157757567551866e-02  7.6865991030771533e-02  1.2952082064184467e-03  4.0100625098819578e-02  2.5582565106010920e-02  1.4437144100082096e-02  1.0532504610643485e-03  2.3504840323021968e-03  1.2312654399405288e-02  2.2877957202581713e-03  3.9001581975257937e-02  8.4772481121781107e-01  1.0500575840799373e-03  1.1979270412712725e-01  8.0883516721879864e-03  1.2821190489242484e-01  2.4717104399716402e-02  8.3355592973441764e-02  1.1287784986206671e-03  2.0768649758151525e-01  8.4100157355555594e-02  2.4395026863126273e-01  1.6149671894630069e-01  5.5938218492968872e-02  3.5115945168618001e-03  0.0000000000000000e+00  3.9842020371231728e-04  3.8865224388697450e-01  1.5635721541383672e-02  1.6677174508166498e-03  4.3324607550425005e-02  1.6799319341835668e-03  8.0321949186182839e-01  2.1590428055028585e-01  7.3745427981776346e-01  4.8626011569588991e-02  1.0000000000000000e+00  3.6271557456383707e-01  3.0266902928066603e-03  2.6817423477057791e-03  4.7397726858313471e-01  2.7207757536915986e-03  6.3296142020810022e-04  1.9537241400183801e-03  0.0000000000000000e+00  4.9759188654546769e-03  8.1925780062129510e-03  1.3774512190012317e-01  3.2589715356850185e-01  3.6240676243604186e-01  1.0000000000000000e+00  1.2544761569603638e-01  1.6990715730047208e-03  6.5210205672405197e-19  4.8694385168419484e-04  3.8914224863685243e-01  9.2105975856333927e-02  6.1562882406507924e-02  1.4835685021894462e-01  2.7590810931163230e-18  3.2740047842845371e-01  4.2471615222698325e-04  7.1971226455881554e-02  5.7196151576545773e-01  2.4249290647019700e-01  3.7852471721363351e-01  2.7966725267012655e-03  2.5426320866629745e-03  2.5976979199909778e-01  4.4034195554445064e-02  4.8358055533917650e-19  -1.9959317678982831e-19  0.0000000000000000e+00  3.3013975207532645e-03  1.2624542173001672e-04  1.1137274699359967e-01  1.5793760959574585e-01  2.3844785754496625e-02  5.8197310462358010e-01  2.5979088476390101e-03  4.5902378335480835e-03  9.4331437454469504e-03  2.9936429194437941e-04  4.3280493804481079e-01  5.7348014070444442e-01  1.7099541683618300e-01  2.2763383113489715e-03  6.7580941395261866e-17  3.1671005277637454e-01  7.4870508098553524e-03  7.8584468718911338e-01  5.0510721157643979e-01  1.5443247881704682e-02  1.7707505118255548e-01  5.6374940994663556e-04  2.5976225822735239e-04  6.3330390580948762e-02  2.0228033574453336e-01  4.6521830441351346e-03  0.0000000000000000e+00  1.0000000000000000e+00  2.7755575615628914e-17  -5.5511151231257827e-17  9.9999999999999978e-01  1.0000000000000000e+00  1.1102230246251565e-16  1.0000000000000000e+00  -5.5511151231257827e-17  2.1359761318658472e-03  2.4654844610024806e-01  7.3290182013287047e-02  1.6553827218309514e-01  3.6063233998815843e-02  9.3336728895581436e-02  7.9466237478171428e-02  1.8215589358114306e-01  2.6167434979973636e-01  5.5810772976569256e-01  6.3127716791941013e-01  5.0208938328747488e-01  8.7696366499157488e-05  5.3304216200080101e-01  7.3320625092799530e-01  5.4967866647620323e-01  0.0000000000000000e+00  1.0000000000000007e+00  1.8537563853957034e-18  9.9999999999999989e-01  1.0000000000000000e+00  9.9999999999999989e-01  1.0000000000000000e+00  1.0000000000000002e+00  1.0000000000000004e+00  0.0000000000000000e+00  1.6904684326064070e-17  1.0195995893603517e-17  -6.3726939642465593e-17  1.0000000000000002e+00  -1.4796095209472996e-17  0.0000000000000000e+00  4.9441997740771902e-03  7.7589011681623424e-02  4.7502743223975297e-01  3.9294514690702109e-01  1.5242685315056659e-03  1.8463751208528528e-02  2.0623850383453388e-01  7.4743649547339419e-01  8.1887612683155031e-02  8.9051380281829004e-02  8.3548455545288014e-01  2.0642269244153708e-01  2.4835129980055579e-01  1.3117570410345794e-01  3.4177964331255767e-01  3.1067475444524766e-03  1.5265064175431553e-01  2.1498929649336920e-01  3.6181634632386312e-03  2.5760693237810947e-03  2.7893808758254687e-02  1.5382893191407410e-01  0.0000000000000000e+00  8.4306667823812897e-01  4.2794006893355813e-01  3.0079269211199050e-01  4.6168378759625595e-02  8.2141560967558154e-04  6.5806856389588908e-01  2.4034755312442754e-02  2.8449809493291391e-04  3.8338186242455558e-01  4.4745746184255186e-01  6.7816823848413088e-01  3.3966038695691886e-04  3.6754341081171177e-01  6.2860121757267873e-01  2.4624466533766996e-03  4.9848576520211801e-01  3.1884845649836696e-01  3.4563115948964629e-01  4.1038705027737854e-01  5.7812084014233871e-02  7.3115419515226376e-02  1.9093166355315168e-02  5.3408627368973137e-02  1.5822576104549901e-02  2.8020483510032383e-03  4.7105271621309987e-02  1.1965404179200579e-02  2.7731026435126919e-03  3.1419473455816349e-01  4.1004790295121907e-01  6.9781761435913914e-03  1.1128095658028712e-02  1.3778240849229051e-02  1.5694632116938831e-01  1.5887662515505672e-03  1.2029893444169988e-01  1.9521211116521200e-01  7.4767916612333910e-02  2.5070579503180452e-03  1.9987562531659636e-01  2.0592323663298716e-03  5.3925962799117977e-01  1.7945674751832355e-01  2.6840760592292687e-03  3.3104632928422646e-02  2.9243116696833360e-01  6.6749940473949463e-04  7.4474732589069803e-04  2.9087076421129964e-02  3.2860994864925990e-03  2.5082198984201370e-01  1.0703901891503937e-02  1.2013519346828884e-01  -1.5787475951642596e-19  2.3880758413992528e-01  2.7031576609962719e-03  1.6713588051210323e-03  5.9065433691845434e-03  3.2898276986589287e-01  3.2369515697574982e-03  3.9348792860856305e-03  4.2544287268194902e-03  3.4975848095585354e-03  2.2995132759365479e-03  9.2761961850041860e-04  6.1676389309191790e-03  1.9901123886581662e-02  1.0958392255254715e-03  8.4913390935500276e-03  1.3171098172199745e-02  4.3820956318669250e-03  4.7879294227987958e-03  3.0655700340596801e-03  3.0762860744761481e-02  8.1232651575614493e-03  6.5611769567365152e-01  1.5152978201828893e-04  2.5114173400891837e-01  2.9945071963025754e-01  3.4717600761493050e-02  8.3606144289751910e-02  2.7614591101588190e-02  4.8855741530302471e-01  3.6186456697588243e-02  8.0182682559500865e-04  6.7045721223838228e-02  2.8762134860563283e-03  2.4694613479593636e-03  3.3384003161865780e-02  2.3689693855056225e-04  4.7165133120068009e-01  4.9684172559130393e-02  3.1322574200109950e-03  2.7651528062996198e-03  2.0477420399601296e-02  1.5682400316194261e-02  5.6873215321076787e-01  9.5300809281607588e-05  1.7196729270742908e-03  4.4922369344821406e-01  5.5336842816549925e-01  6.3074791993002599e-01  4.9709877943530639e-03  5.2696807679679582e-02  7.4672748251654084e-02  1.2167621809094881e-01  2.0668826773309296e-01  4.6350997478316973e-04  1.3924168720786069e-02  7.0239319665594858e-03  2.1463932023539798e-03  3.5073244127753742e-03  4.2535247634174926e-02  1.1937850380302432e-01  5.6702479371505176e-04  4.6923070387709584e-03  9.0679159814313574e-03  6.2994399400531298e-01  3.6730234057382732e-01  2.2530693424519022e-03  5.7293630242228444e-01  1.7645260821724507e-01  1.8929725843802414e-03  5.4547576174738521e-01  2.4057511255495104e-01  3.3369163213559067e-01  9.6154434677407413e-04  4.2491274871463719e-01  8.1567350325642884e-01  2.55366