<?xml version="1.0"?>
<VTKFile type="UnstructuredGrid"  version="0.1"  >
<UnstructuredGrid>
<Piece  NumberOfPoints="1407" NumberOfCells="2594">
<Points>
<DataArray  type="Float64"  NumberOfComponents="3"  format="ascii">0 1.5 0  0 0 0  1 0 0  1 1.5 0  0.35 0.65 0  0.65 0.65 0  0.65 0.35 0  0.35 0.35 0  0.35 0.96 0  0.65 0.96 0  0.65 0.66 0  0.35 0.66 0  0.5 0 0  0 0.75 0  1 0.75 0  0 0.375 0  1 0.375 0  0.5 1.5 0  0 1.125 0  1 1.125 0  0.25 1.5 0  0.75 1.5 0  0.375 1.243888888888889 0  0.7401086956521739 1.222572463768116 0  0.25 0 0  0.75 0 0  0 1.3125 0  0 0.1875 0  1 0.1875 0  1 0.5625 0  0.1848214285714286 0.5 0  0.8174107142857143 0.4687500000000001 0  1 0.9375 0  0 0.9375 0  0.65 0.8100000000000001 0  0.35 0.8100000000000001 0  0.5 0.96 0  0.1766238683127572 1.21875 0  0.822642375995101 1.047501020616452 0  0.7939338235294118 0.2018382352941176 0  0.1691964285714286 0.2812500000000001 0  0.5 0.35 0  0.375 0.1535714285714286 0  0.6048949210808516 0.1621878909653493 0  1 1.3125 0  0 0.5625 0  0.1640714285714286 0.84375 0  0.1762692062917373 1.03105178667178 0  0.8359285714285715 0.84375 0  0.5621023945474183 1.311129826715227 0  0.8371875000000001 0.655 0  0.5750000000000001 1.127791931175133 0  0.1541601069440535 0.6706504438581293 0  0.125 0 0  0.1472250502829418 1.376616599622744 0  0.875 1.5 0  0.8125 1.358881548190251 0  0.5 0.66 0  0.5 0.65 0  0.65 0.5 0  0.35 0.5 0  0.2276848339686157 0.1458213145438177 0  0.3085985630593322 1.106691146327673 0  0.875 0 0  0.375 1.5 0  0.2909251682594172 1.361414428952837 0  0.8714485246915223 1.177499722658573 0  0.9029912728918508 0.28125 0  0.444309425661123 1.085550489893153 0  0.625 1.5 0  0.4346130758247274 1.371944444444444 0  0.7830629592613936 0.3397919143065746 0  0.6968622084092321 1.081604367811559 0  0.6866668860416248 1.338331850546329 0  0.375 0 0  0.625 0 0  0.125 1.5 0  0.7571283548077703 0.748845218306158 0  0.7497099213182619 0.5701137366539539 0  0.2558692064407742 0.7350000000000001 0  0.2964140829763539 0.2433747793917957 0  0.487623348851111 0.2198890377440982 0  0.1158974935208339 0.1778872531899508 0  0.4913641269692496 1.214030859276334 0  0.8920530408454942 0.1240479727696705 0  1 1.40625 0  0 0.46875 0  0.1214285714285714 0.3945950255102041 0  0.2365058822631193 0.3763548342152661 0  0.2456138461425831 0.5990025036099956 0  0.4770810139768792 0.1090028186854997 0  0.7324133588990726 0.885 0  0.2375677858915855 0.9330117235698416 0  0.6875 0.09008767814013303 0  0 0.09375 0  0.8844805807868602 0.9492246725472735 0  1 1.03125 0  0.5834655682110902 0.2666566655049612 0  0.6885561374079259 0.2337813098434742 0  0.7916743749039853 0.09563647865846153 0  0.8786016838893559 0.3833986205581952 0  1 0.46875 0  0.65 0.425 0  0.8882832664189577 0.5553994528860708 0  0.2722741679154312 1.259236683937199 0  0.1131818206155013 1.125020434123634 0  0 1.03125 0  0 1.21875 0  0.09912013537260758 1.285987520622005 0  0.08808200402380065 0.984375 0  0.6077660994283478 1.400831062100319 0  0.6413197405572436 1.247181014921799 0  0.3125 0.07678571428571428 0  0.2115509529508847 1.12290046025129 0  0.08712689786059351 0.515625 0  0.7408460906408083 0.9948227293752155 0  0.9102138337299758 1.088784707834322 0  0.7784947248552031 1.133678645592879 0  0 0.28125 0  0.9121087256808306 1.359375 0  0.3955440542548779 0.2603334657204607 0  0 1.40625 0  0.8275600060378382 1.263506047310984 0  0.1028654383262875 0.7604209991457549 0  0 0.84375 0  0.2594390176916248 0.8401147857472698 0  0.8910305066923369 0.7497383215897779 0  1 0.84375 0  1 0.65625 0  0 0.65625 0  0.2765148843081602 1.018447946771745 0  1 0.09375 0  1 0.28125 0  1 1.21875 0  0.5286689024592001 1.047843308650617 0  0.5661821483107946 0.0750489168121735 0  0.9201380862399812 1.265625 0  0.7403885126828781 0.660020326953331 0  0.1513301897243842 0.09052383276278524 0  0.5171646806951644 1.410513970235298 0  0.6570217268909305 1.160344078183039 0  0.7394087923884696 1.410909707163877 0  0.1597324233372193 0.5835719083714564 0  0.08092896858221162 0.6222466888400674 0  0.7406947469126506 0.420129886084974 0  0.3854925570702976 1.154143195318199 0  0.906617561036541 0.4680945575311649 0  0.6172348635009329 1.042458313459878 0  0.2141683776785341 1.322634117574637 0  0.08459821428571429 0.2594498612289851 0  0.2674107142857143 0.461898043123306 0  0.4777250723534856 1.298283651036468 0  0.0820357142857143 0.8902640971599273 0  0.8067693018529518 0.9210846151560834 0  0.9179642857142858 0.8698994370782795 0  0.9184720779953784 0.6714727786019703 0  0.8125 1.5 0  0.3592454149918304 1.414762375733811 0  0.08273791947095149 1.203458670678841 0  0.1560659569667871 0.9252301420776499 0  0.1875 1.5 0  0.2241548454996505 1.417032255526303 0  0.7569162437644694 1.300547627237065 0  0.8756778333016498 0.2041689303975273 0  0.425 0.96 0  0.3683938696687017 1.044379450572799 0  0.3115202260566392 1.187984438803453 0  0.9375 0 0  0.0625 1.5 0  0.0625 0 0  0.9264280023005735 1.438362336400765 0  0.06564386585944831 1.359375 0  0.178795192836391 0.7442669694401668 0  0.84375 1.429440774095126 0  0.7242268907236241 0.1616684353669041 0  0.5713544697069139 1.207931597011395 0  0.4022451707491219 0.07678571428571428 0  0.07606434792255712 0.1108647246227404 0  0.425 0.65 0  0.425 0.66 0  0.575 0.66 0  0.575 0.65 0  0.7470006991683099 0.4950137159009523 0  0.35 0.885 0  0.575 0.35 0  0.35 0.7350000000000001 0  0.65 0.575 0  0.65 0.7350000000000001 0  0.35 0.425 0  0.35 0.575 0  0.425 0.35 0  0.575 0.96 0  0.65 0.885 0  0.09374999999999999 1.430677538716259 0  0.3013424169843079 0.1496963715576231 0  0.1849438256048778 0.2077067101869471 0  0.2388424169843079 0.07291065727190887 0  0.07173640644322976 1.059854456790638 0  0.06419661411279236 0.6957315727649066 0  0.2825570108498748 0.3171166010622856 0  0.6875 1.5 0  0.3310674883674913 1.301295954813875 0  0.9454023739255069 0.796875 0  0.2864246282817768 0.5375 0  0.4375 1.5 0  0.06852058805486823 0.3364225748984086 0  0.05473106199790181 0.421875 0  0.7135929719652974 0.3065923478857669 0  0.8888550555744522 1.020570544533449 0  0.407532026105657 1.306647883491885 0  0.5625 1.5 0  0.8212431665208667 0.5839139336079717 0  0.8449063139999805 1.113303479705628 0  0.9364744114754 1.153086685838695 0  0.8050610353937171 1.197823767658308 0  0.9460861604217302 0.9812544539636752 0  0.3125 1.5 0  0.5395508056360561 0.1390491298940069 0  0.8250510836080026 0.2736954572484136 0  0.7668593251606742 0.8209321371112722 0  0.2424812269132693 1.196392022067605 0  0.4625809056443893 0.2879153087548867 0  0.5074314933609925 1.113549617627778 0  0.4625 1.018492692938468 0  0.2265244654934102 0.6688274228040376 0  0.9413055286111207 0.6035716882072499 0  0.1875 0 0  0.2919459712016241 1.430528396467327 0  0.9416388533356789 0.2241755975156681 0  0.9514956364459254 0.328125 0  0.1856644334506817 0.4277275857546619 0  0.8242412700826193 0.7250273480299602 0  0.8053784643420075 0.4029014938645147 0  0.9464872489384214 0.5220448903410788 0  0.2309291709733608 0.2560108789995744 0  0.04721180949295774 0.796875 0  0.9349436788066534 0.06941254746223105 0  0.1288399026521283 0.46320589278353 0  0.6737967094059217 1.403137079691092 0  0.7518314060180149 0.2527335563443291 0  1 0.421875 0  0.4237656699886009 0.1995451747809214 0  0.553676710930477 0.2061139150875385 0  0.6797195785728654 1.018378818678655 0  0.7613667893807466 1.070507292292808 0  0.1631785834210849 1.439674026820779 0  0.4540144981165559 1.156533259031902 0  0.4213304861750082 1.43630421090153 0  0.8625085973885606 1.317901263313451 0  0.6273905302568502 1.310966158584549 0  0.8046776547721317 0.9855519749551188 0  0.940631785081856 0.3984375 0  0.6999676548244024 1.272023881363465 0  0.8542595457271082 0.0660473565678811 0  0.1043836826697193 0.8234485419017311 0  0.2101468681538403 0.7997381985269827 0  1 0.140625 0  0.8361926167440458 0.1543650292605365 0  0.4375 0 0  0.5625 0 0  0.3125 0 0  0.6875 0 0  0.9375 1.5 0  0.8125 0 0  0.2864754521352191 0.6476955015681203 0  0.6322970047049524 1.103031773484618 0  0.7209532103538135 1.161565948317914 0  0.7017180067223532 0.6105745033213139 0  0.2914626200609601 0.4048544181949066 0  0.6996123697590465 0.7725000000000001 0  0.231159419371175 1.062667568780693 0  0.1316408306563898 0.3321607570435455 0  0.5219434332956034 0.2711458164626565 0  0.6467041741612273 0.2844016514004487 0  0.2995462702051331 0.9225 0  0.6291631828128607 0.06383582160471275 0  0.8442223102136631 0.33225889816149 0  0.7003913795738027 0.5342940179879695 0  0.1015914133185109 0.05589991020659692 0  0.1637045917320031 1.282145618966898 0  0.2209883146839276 0.3167727253696408 0  0.3029346032203871 0.7725000000000001 0  0.5262767027548977 1.262912953352655 0  0.4292200831019913 1.213519056511027 0  0.0491162294897297 1.253023057223217 0  0.7067688852543174 0.7114634584135495 0  0.6974370307130239 0.4614800360643829 0  0.6644963707081416 0.1471028116907735 0  0.2620494584724848 0.1945980469678067 0  0.3525845718815589 0.2132424437773113 0  0.3378418327522833 0.2893324814869065 0  0.8406284803721253 0.7833507443827437 0  0.4922425048086627 1.356227010933077 0  0.3658763125187799 1.352883654261354 0  0.708610094744571 0.8309083836866393 0  0.7293871992435489 0.3628256245704534 0  0.1685954763545719 0.1507135716553993 0  0.05670661476910926 0.1677176798381019 0  0.2095563539353029 0.552977558900388 0  0.8860298130099459 0.6227735440522468 0  0.8650085945175792 0.8942759547053409 0  0.8894766033391922 0.81752852889196 0  0.46875 0.05034024765419566 0  0.799037940308298 0.527007148879893 0  0.2222243267665793 0.991601574338417 0  0.2006969871961888 0.8884818247236804 0  0.7869100209624815 1.44646667070636 0  0.9364909965206036 0.9244491479145617 0  0.05658672689496352 1.148181569262383 0  0.53166669626361 1.165973461661098 0  0.1822077846795723 0.3586844811385232 0  0.9419619937199086 1.211338142823728 0  1 0.703125 0  0.9455712217622753 0.7265625 0  0.1303148549620776 1.068361279539146 0  0.1349739919492207 1.17860568705
[...]
<PointData  Scalars="f_669"> 
<DataArray  type="Float64"  Name="f_669"  format="ascii">0.0000000000000000e+00  0.0000000000000000e+00  0.0000000000000000e+00  0.0000000000000000e+00  1.0000000000000000e+00  1.0000000000000000e+00  1.0000000000000000e+00  1.0000000000000000e+00  0.0000000000000000e+00  0.0000000000000000e+00  0.0000000000000000e+00  0.0000000000000000e+00  0.0000000000000000e+00  0.0000000000000000e+00  0.0000000000000000e+00  0.0000000000000000e+00  0.0000000000000000e+00  0.0000000000000000e+00  0.0000000000000000e+00  0.0000000000000000e+00  0.0000000000000000e+00  0.0000000000000000e+00  2.6616491502723990e-03  3.3938024846299998e-03  0.0000000000000000e+00  0.0000000000000000e+00  0.0000000000000000e+00  0.0000000000000000e+00  0.0000000000000000e+00  0.0000000000000000e+00  4.1524945300443217e-01  4.1706499059390584e-01  0.0000000000000000e+00  0.0000000000000000e+00  0.0000000000000000e+00  0.0000000000000000e+00  0.0000000000000000e+00  3.2072729917150887e-03  1.0459677219955558e-02  2.6416083371174803e-01  2.9503757784132018e-01  1.0000000000000000e+00  3.3878845652190914e-01  3.7163633726471679e-01  0.0000000000000000e+00  0.0000000000000000e+00  5.5876147434120949e-02  1.1800782707066885e-02  5.5451988479233438e-02  1.8612593096403965e-03  2.2498611880366662e-01  3.0712273867128255e-03  1.9507357714513504e-01  0.0000000000000000e+00  9.0694468145600851e-04  0.0000000000000000e+00  1.2443856542678888e-03  0.0000000000000000e+00  1.0000000000000000e+00  1.0000000000000000e+00  1.0000000000000000e+00  2.0926614818136385e-01  5.3303235140952287e-03  0.0000000000000000e+00  0.0000000000000000e+00  1.4270005681864487e-03  3.5345015322104695e-03  1.6356103948652892e-01  2.6793791147235262e-03  0.0000000000000000e+00  1.2772503282183379e-03  4.6036289839857936e-01  6.0731117777107681e-03  1.6964992969976131e-03  0.0000000000000000e+00  0.0000000000000000e+00  0.0000000000000000e+00  1.3605726110343258e-01  5.4927484264835713e-01  1.5466816767794994e-01  4.7332862817754257e-01  5.6167131885225519e-01  1.2861704338754948e-01  2.5443406390483390e-03  8.3860151215779638e-02  0.0000000000000000e+00  0.0000000000000000e+00  2.5714956269543959e-01  5.4772053013304667e-01  4.7884667818799637e-01  2.5878855043858506e-01  2.9857503771271388e-02  2.3516348313209097e-02  1.6954858970495115e-01  0.0000000000000000e+00  1.8880614388953734e-02  0.0000000000000000e+00  6.8729579262849860e-01  4.7324007009573638e-01  1.2402866994155005e-01  2.5461478151658667e-01  0.0000000000000000e+00  1.0000000000000000e+00  2.1491282053948038e-01  2.7506804113050054e-03  4.6652328598186200e-03  0.0000000000000000e+00  0.0000000000000000e+00  1.3560791138947452e-03  1.1442810159150201e-02  1.0032616619075154e-03  2.6945277622841142e-03  1.4386993667845310e-01  6.1810276018614664e-03  1.7723424820539527e-01  1.2673751692317471e-02  5.1272831413139951e-03  5.7998426579751426e-03  0.0000000000000000e+00  6.8934308714953870e-04  6.5218497839304868e-01  0.0000000000000000e+00  2.3738899816675382e-03  7.5959096879132090e-02  0.0000000000000000e+00  4.9214704408294514e-02  8.5955208691443061e-02  0.0000000000000000e+00  0.0000000000000000e+00  0.0000000000000000e+00  9.6871606746629941e-03  0.0000000000000000e+00  0.0000000000000000e+00  0.0000000000000000e+00  2.0211598981357366e-03  1.7168370607396705e-01  1.3105292727251681e-03  3.4912401061923570e-01  8.6146519024880977e-02  8.8776177217935294e-04  3.8589367504409363e-03  8.6872214762227860e-04  2.9627535482856043e-01  1.2625925118645798e-01  6.4820199999504635e-01  3.4098293000469236e-03  1.9863165063055846e-01  3.3851461989755811e-03  1.7574710722205616e-03  1.3267821776979641e-01  6.8219963793686189e-01  1.9439011179814380e-03  2.3444306622846904e-02  2.9109825321187607e-02  2.7564339369774635e-02  1.0246404957129208e-01  0.0000000000000000e+00  8.6512993477462063e-04  2.0698306460559426e-03  2.7178245260827145e-02  0.0000000000000000e+00  7.6018284251813889e-04  2.1249376112896677e-03  1.5743460561312431e-01  0.0000000000000000e+00  3.8375620846100656e-03  3.7741697622194186e-03  0.0000000000000000e+00  0.0000000000000000e+00  0.0000000000000000e+00  2.3371512276182326e-04  5.2926357276773654e-04  1.3315234803873041e-01  5.1418380751151315e-04  2.7966617115245673e-01  2.7329861515636321e-03  1.7040645225073645e-01  5.2405059196540441e-02  1.0000000000000000e+00  0.0000000000000000e+00  0.0000000000000000e+00  1.0000000000000000e+00  6.2536001119732731e-01  0.0000000000000000e+00  1.0000000000000000e+00  0.0000000000000000e+00  1.0000000000000000e+00  0.0000000000000000e+00  1.0000000000000000e+00  1.0000000000000000e+00  1.0000000000000000e+00  0.0000000000000000e+00  0.0000000000000000e+00  3.3378393020407548e-04  2.7887995505792607e-01  2.4255297282012189e-01  1.0720632118090706e-01  5.2734299016978662e-03  7.1992569096305692e-02  6.0610107306111194e-01  0.0000000000000000e+00  2.1190246432064123e-03  3.2565039455840272e-02  7.2151146973213831e-01  0.0000000000000000e+00  1.3032582835143303e-01  1.1430953161432456e-01  5.9567602402844277e-01  1.0291832010814012e-02  1.9429592687193165e-03  0.0000000000000000e+00  3.3741440351362201e-01  6.1785526600229646e-03  2.3555906679764279e-03  3.8117267003415136e-03  7.7003127358123624e-03  0.0000000000000000e+00  3.3278595899936758e-01  2.9811748363915114e-01  6.7851298761999274e-02  3.9461033680326888e-03  7.7728867962423065e-01  2.6197116545990172e-03  1.4957605592459716e-03  2.8650118243744960e-01  9.7073541285407364e-02  0.0000000000000000e+00  6.9064039388865147e-04  7.9991070671870765e-02  9.0614037806099001e-02  4.2496990344381280e-01  1.5299149666034004e-01  4.4299343898524385e-01  1.0650086001316765e-01  3.8099139344679411e-01  2.8263510577567066e-02  2.8277618513030171e-02  2.8061704819054328e-01  9.8590886147191894e-04  4.0733564123388194e-01  0.0000000000000000e+00  4.8492376100451340e-01  5.1302946230252533e-01  6.3886603363049752e-03  8.4064812856980940e-03  4.5248103542452428e-04  2.8293701926364943e-03  6.3908111494424770e-04  1.4063021524868234e-03  1.9538965560919642e-03  1.6991292983579424e-02  1.2257804145454544e-01  2.5382064678871304e-03  5.9911629164286828e-02  4.8707506786118071e-02  8.6319205186795783e-02  0.0000000000000000e+00  1.5862197366376476e-01  0.0000000000000000e+00  0.0000000000000000e+00  0.0000000000000000e+00  0.0000000000000000e+00  0.0000000000000000e+00  0.0000000000000000e+00  4.3753105711443530e-01  3.9838368816811232e-03  4.5866275014422690e-03  6.4181431883136386e-01  7.5749982034337848e-01  6.8469733799220903e-02  8.9613195344393909e-03  2.5580742758617936e-01  7.2279612507068636e-01  6.8568541141538708e-01  1.3960775598768472e-02  1.3495989941761632e-01  3.0755660668950718e-01  7.7765523011023929e-01  3.5516765035348188e-02  2.0224966508735781e-03  4.4389672817332565e-01  6.6109546435453401e-02  2.2381847888596242e-03  2.6923332852829569e-03  9.0218693090317933e-04  1.7666484991208281e-01  8.1242491425298036e-01  2.9944809863829058e-01  3.2515714515095712e-01  4.7195786661570482e-01  6.7535090024175293e-01  9.0827801101522915e-02  1.4125095858856527e-03  1.5118142201424895e-03  3.9409621747978810e-02  6.4400882911829227e-01  1.5991268590427896e-01  5.8783351042096720e-02  4.4657347531995722e-01  1.7925505189927338e-01  3.2899107363717657e-02  5.3230666167278951e-02  1.1695122636244593e-01  4.4449045492637690e-01  1.5362055447979956e-02  3.8603365785740106e-02  4.7070978628626026e-04  1.4167184305246302e-02  2.1819726266597205e-03  2.7492193571504783e-03  3.8625194842143745e-01  1.4204630731158333e-03  0.0000000000000000e+00  5.1210788218156493e-02  7.8551205286199292e-03  3.6192764243843916e-03  1.9824471425499379e-01  0.0000000000000000e+00  0.0000000000000000e+00  2.9420131631548535e-01  1.4767450034307078e-03  8.3443974799238485e-02  5.0691360883252275e-03  5.1473509214246919e-03  1.3782370013296918e-02  4.0165323971628764e-01  2.9677550192266727e-01  4.0451611479169047e-03  0.0000000000000000e+00  3.8432320918891455e-01  2.6655042431873066e-03  5.1326889561673006e-01  7.7091603269616241e-02  1.3471752841289649e-03  4.5933713353579178e-04  4.5403634716112206e-04  1.3828402474235330e-01  3.0129425980744445e-01  1.9587619189802075e-01  5.7072583248252196e-01  4.3948993340670622e-02  1.6479554087239362e-02  6.9773311608572164e-01  1.0738406486268491e-01  0.0000000000000000e+00  2.0823816946837434e-01  2.4209321436611925e-01  1.9485224012456570e-01  3.2861875068690710e-01  5.8468241555666295e-02  1.4888206569884260e-01  2.0318058411401521e-03  2.9225286316826309e-03  3.3885584876657631e-03  2.3633899114886398e-03  0.0000000000000000e+00  8.1751341888635712e-02  1.1938340846217342e-01  4.0469713320656658e-02  4.7168140044468137e-04  0.0000000000000000e+00  2.2746812319876025e-03  6.3169144391653134e-04  1.0344556694196327e-03  4.3234544490170827e-02  2.1078675013535200e-01  4.5575900061625273e-03  2.0251473928087186e-02  1.8831165495029412e-03  2.4492207963590423e-01  5.0743156882796371e-04  2.2142059693743898e-02  8.1099078591038631e-01  2.3627427759195709e-03  1.4299924861720730e-03  1.0000000000000000e+00  1.1168341051416369e-01  4.6497223461440366e-04  2.3976301105929493e-02  5.1767649900640329e-03  1.1089198628467113e-02  1.9936703608161847e-02  2.1085679896876146e-02  0.0000000000000000e+00  8.4102065502495869e-04  2.8844852443203069e-04  6.4247127747661746e-04  0.0000000000000000e+00  1.7407252988251506e-03  1.6583336208460189e-01  7.6811390181698150e-02  6.9428680295169173e-02  2.3989539280122232e-01  1.8848163008042862e-01  2.8870422206890584e-01  0.0000000000000000e+00  9.3704903712187992e-03  6.4679608953017997e-03  3.1039927473934846e-03  5.0303155587976805e-03  6.0468296416692664e-03  2.3320152521993202e-03  3.9338808890376331e-02  4.4259850238572541e-04  1.0000000000000000e+00  7.8485248892996254e-02  0.0000000000000000e+00  2.5581663179783960e-04  8.6478867222340265e-03  6.1488767713596812e-03  2.3765400352861116e-03  8.1539576262015870e-03  4.2480880579326323e-03  9.1505124395003717e-02  2.7707284348040995e-03  1.7926398795183734e-03  6.2772772587888293e-01  0.0000000000000000e+00  1.4349796812092100e-03  6.7817853087255214e-02  0.0000000000000000e+00  3.3573032469296243e-02  5.1687709461667919e-01  1.1943657913708697e-02  3.1051091776969917e-03  3.3376281912802008e-01  0.0000000000000000e+00  8.3682218141642828e-01  1.2949165766681446e-03  0.0000000000000000e+00  8.1595994142690509e-01  3.8957755214658898e-02  1.3484706015769768e-01  9.8455591488629562e-02  1.2378991775865438e-04  9.3804581886856604e-03  7.7272447853873440e-03  0.0000000000000000e+00  0.0000000000000000e+00  0.0000000000000000e+00  0.0000000000000000e+00  0.0000000000000000e+00  0.0000000000000000e+00  0.0000000000000000e+00  0.0000000000000000e+00  0.0000000000000000e+00  0.0000000000000000e+00  0.0000000000000000e+00  0.0000000000000000e+00  0.0000000000000000e+00  0.0000000000000000e+00  0.0000000000000000e+00  0.0000000000000000e+00  0.0000000000000000e+00  2.0927771595168086e-02  1.4531360171562424e-03  4.7336549799528813e-03  9.7489816981715743e-02  1.4246732858999203e-01  2.0506050435704995e-01  8.2067654736294265e-02  2.2387215408796890e-01  1.0497097400800374e-03  4.6563408947387896e-01  3.8874001687622828e-01  1.1327278680055054e-03  2.1428512780744869e-03  7.5277319884104937e-02  2.7752725682920573e-02  4.3012366283611669e-03  8.9165364157979529e-02  8.2150764722634052e-04  1.5883614832824400e-02  1.0109429293353514e-03  9.3127444750869422e-04  6.1136279653614878e-01  8.1043488138520192e-01  5.2324211884343785e-01  3.1667421666238700e-04  8.4087114893554438e-01  4.2530259976254287e-01  3.2569876264149362e-03  4.1292023810403705e-03  3.0974933537507863e-03  1.1887845738370165e-01  1.0443172578785938e-01  2.4532075936714009e-03  3.7057965298682205e-01  3.1614327883137799e-01  1.9651105258510013e-01  5.6708706876757282e-02  2.0906599001982390e-01  4.3975152746045479e-02  6.6423761037047516e-03  3.2069459932381182e-03  4.8169530393655478e-03  1.1771609118907402e-03  8.2560686730146704e-01  4.8612507140675673e-03  3.4801114614323504e-03  2.1878642935928502e-01  7.6162007719589875e-01  6.6251973242130099e-02  5.6173178354948811e-02  2.6755555874238461e-03  4.6984942463561580e-02  5.0538525723184164e-04  2.1213739906325413e-01  1.2563546885128868e-01  4.5424724525032413e-04  1.0266042893410385e-03  1.2262160906607756e-03  1.5787981288444733e-01  2.7969499903071592e-03  1.9803892183332901e-02  1.9562600887981640e-01  2.0591967308412029e-01  2.4873215864417256e-01  5.3570002178448572e-01  6.0229107786846696e-02  1.7174193267387701e-03  2.4089366784395645e-03  1.6275014652168684e-03  1.7582352181723200e-03  2.1240645963632029e-01  1.2960731615429223e-02  9.3765801259704185e-02  3.7054984175339735e-02  3.1104543792363007e-03  7.0237497098834117e-02  2.7774022136153459e-01  6.7579058466445661e-04  2.0486251026617883e-01  3.3605123654396928e-04  8.0540151330321785e-03  3.9769068765286492e-01  8.4999197556883607e-02  7.6891404194550581e-02  1.2718594214800941e-03  4.0070614000090814e-02  2.5647256559011285e-02  1.4196137622866206e-02  1.0395996500330849e-03  2.3047293577608376e-03  1.2424013208741268e-02  2.2446260577391043e-03  3.8854249053666419e-02  8.4932778417535149e-01  1.0290891372772423e-03  1.2119181475432256e-01  7.7623357764780871e-03  1.2855783672442683e-01  2.5335212694002150e-02  8.4637462398460414e-02  1.1103413818111573e-03  2.0910924140810636e-01  8.4697918147815021e-02  2.4552002089046818e-01  1.6310237857837243e-01  5.6119451456679487e-02  3.4412565547635426e-03  0.0000000000000000e+00  3.9051286687750780e-04  3.9208642426622053e-01  1.5347694199785693e-02  1.6415967532718279e-03  4.3353015710270754e-02  1.6562429846994965e-03  8.1014932421800268e-01  2.1796916489172960e-01  7.4914291429677438e-01  4.9048670189468097e-02  1.0000000000000000e+00  3.6633411123817761e-01  2.9505137456648308e-03  2.6135801920621322e-03  4.8006056101219141e-01  2.6762327426581613e-03  6.2565933019145424e-04  1.9198850044076484e-03  0.0000000000000000e+00  4.8924502175520445e-03  8.0252015259949412e-03  1.3902381829937507e-01  3.2966080961112887e-01  3.6310865394409686e-01  1.0000000000000000e+00  1.2705248739900846e-01  1.6628393007118755e-03  0.0000000000000000e+00  4.7860026530883228e-04  3.8926232635691826e-01  9.2544384009281791e-02  6.1975510865858778e-02  1.4997956705815449e-01  0.0000000000000000e+00  3.3030925380465237e-01  4.1915867648999731e-04  7.2032979540330777e-02  5.7204453498452013e-01  2.4473106591521368e-01  3.8172676136907513e-01  2.7161445468358229e-03  2.5183667209547215e-03  2.6229433574099276e-01  4.4032191794748689e-02  0.0000000000000000e+00  0.0000000000000000e+00  0.0000000000000000e+00  3.2625135596959631e-03  1.2449547109488228e-04  1.1176094002776581e-01  1.5797220933943476e-01  2.3886578889002859e-02  5.8879265629457611e-01  2.5820059339217200e-03  4.5501146438705550e-03  9.5279805636710145e-03  2.9470037099846351e-04  4.3558123584298947e-01  5.8164853163252928e-01  1.7218715968363238e-01  2.2242005178597772e-03  0.0000000000000000e+00  3.1823969754635806e-01  7.4638759023616325e-03  7.8596774347702592e-01  5.0431430046611792e-01  1.5144688820131823e-02  1.7724454017822711e-01  5.5389591831009821e-04  2.5518221781614144e-04  6.3766661800057398e-02  2.0421754301710132e-01  4.5507575958284733e-03  0.0000000000000000e+00  1.0000000000000000e+00  0.0000000000000000e+00  0.0000000000000000e+00  1.0000000000000000e+00  1.0000000000000000e+00  0.0000000000000000e+00  1.0000000000000000e+00  0.0000000000000000e+00  2.0843667239285814e-03  2.4657928052154343e-01  7.3652406998875458e-02  1.6637319033008369e-01  3.6128460466078184e-02  9.3477021981284603e-02  8.0526854139590195e-02  1.8408743458990881e-01  2.6435397952495143e-01  5.5902070652490832e-01  6.3389310439232804e-01  5.0408788153298723e-01  8.6459679361571319e-05  5.4115583475524265e-01  7.4954819372024450e-01  5.5637994589385686e-01  0.0000000000000000e+00  1.0000000000000000e+00  0.0000000000000000e+00  1.0000000000000000e+00  1.0000000000000000e+00  1.0000000000000000e+00  1.0000000000000000e+00  1.0000000000000000e+00  1.0000000000000000e+00  0.0000000000000000e+00  0.0000000000000000e+00  0.0000000000000000e+00  0.0000000000000000e+00  9.9999999999999989e-01  0.0000000000000000e+00  0.0000000000000000e+00  4.8799686983248243e-03  7.7603160843620775e-02  4.7877547741110216e-01  3.9567489618192653e-01  1.4993908984646657e-03  1.8197241990191373e-02  2.0841010402142457e-01  7.6250010290833570e-01  8.2385642242068735e-02  8.9680432426329781e-02  8.3491863911457309e-01  2.0827535669692035e-01  2.5087137679746058e-01  1.3232016830661750e-01  3.4413354808549701e-01  3.0259304977458389e-03  1.5372081683146738e-01  2.1657694563444585e-01  3.6123481617423145e-03  2.2617455340453790e-03  2.7808042674985996e-02  1.5394385056223828e-01  0.0000000000000000e+00  8.4446721879486064e-01  4.2836127367322296e-01  3.0152526966994625e-01  4.5840514012930982e-02  8.0510800594417909e-04  6.3794245488750301e-01  2.4007020110742287e-02  2.8006894395406001e-04  3.8651147001956598e-01  4.5104412678249101e-01  6.8136103609091214e-01  3.3266634956887441e-04  3.6775668678626389e-01  6.3215758948288359e-01  2.4112357561047008e-03  5.0170948739454957e-01  3.2027292555554054e-01  3.4801326561358026e-01  4.1220833907955251e-01  5.8571744895456558e-02  7.3306973993951516e-02  1.9302724600974909e-02  5.4124161049499665e-02  1.5681785890247976e-02  2.7128530843992947e-03  4.7081646752881859e-02  1.1809345927837424e-02  2.7122001315270875e-03  3.1658180568866445e-01  4.1312053907515134e-01  6.9465440792997098e-03  1.1064642408237227e-02  1.3752210011566266e-02  1.5864164448524989e-01  1.5523775658515388e-03  1.2109540256459617e-01  1.9564701319390046e-01  7.5175110886114060e-02  2.4475410135354502e-03  2.0142835841064219e-01  2.0372799611926349e-03  5.4592859220287049e-01  1.8059855519011783e-01  2.6723031213358103e-03  3.3271435786513634e-02  2.9495759987544695e-01  6.6046479803102487e-04  7.3786019914942732e-04  2.9295018243433012e-02  3.1719162424966615e-03  2.5106425618427680e-01  1.0619762030891265e-02  1.2226089344037945e-01  0.0000000000000000e+00  2.3906177246107721e-01  2.6100428676065907e-03  1.6384698891322691e-03  5.8623205102875282e-03  3.3278368316916324e-01  3.1770657870166209e-03  3.8702038898124204e-03  4.1701398453840976e-03  3.4470331814191696e-03  2.1994695263002489e-03  8.7065473481106454e-04  6.1004616854197415e-03  2.0632860352546127e-02  1.0875612234560821e-03  8.4725023859788355e-03  1.3169596818473633e-02  4.3846217731883120e-03  4.7263826016991656e-03  3.0253025970979485e-03  3.0823169405916510e-02  8.0557537492210608e-03  6.6065729812654972e-01  1.4892173311191362e-04  2.5287722970508997e-01  3.0144161161972344e-01  3.4845497194075710e-02  8.4288757933252675e-02  2.7716978046636209e-02  4.9162486834144919e-01  3.6434861260034646e-02  7.8487261612561888e-04  6.7420223118460645e-02  2.7944743302967517e-03  2.3872389482664990e-03  3.3515595983349737e-02  2.3305895885367947e-04  4.7724361652821318e-01  4.9798097161762034e-02  3.0437765982120461e-03  2.6904179691425215e-03  2.0355061195906698e-02  1.5567260445010384e-02  5.7141383781278376e-01  9.3708345053633809e-05  1.6282556720114100e-03  4.5392975662914975e-01  5.6025888176233063e-01  6.3711155172339140e-01  4.8578366717804793e-03  5.3200135236671602e-02  7.5474172616665225e-02  1.2201061312472612e-01  2.0875095792400894e-01  4.5681050002196083e-04  1.3836056696312290e-02  6.8951561439714038e-03  2.1068446984754078e-03  3.4824285259752057e-03  4.2787173639032318e-02  1.2050184306914459e-01  5.5434592500485671e-04  4.6474571234486981e-03  8.9716195941228951e-03  6.2999402901114232e-01  3.6826599450197378e-01  2.1977844214631182e-03  5.7744339822645807e-01  1.7708836130062292e-01  1.8500582938901695e-03  5.4947253130381690e-01  2.4129323619408280e-01  3.3428747611616305e-01  9.4644213328816222e-04  4.2712033290848106e-01  8.2640390659192087e-01  2.4968591563168025e-03  7.068692895134015