<?xml version="1.0"?>
<VTKFile type="UnstructuredGrid"  version="0.1"  >
<UnstructuredGrid>
<Piece  NumberOfPoints="1442" NumberOfCells="2689">
<Points>
<DataArray  type="Float64"  NumberOfComponents="3"  format="ascii">0 1.5 0  0 0 0  1 0 0  1 1.5 0  0.35 0.65 0  0.65 0.65 0  0.65 0.35 0  0.35 0.35 0  0.5866025403784438 1.25 0  0.6 1.2 0  0.5866025403784438 1.15 0  0.55 1.113397459621556 0  0.5 1.1 0  0.45 1.113397459621556 0  0.4133974596215561 1.15 0  0.4 1.2 0  0.4133974596215561 1.25 0  0.45 1.286602540378444 0  0.5 1.3 0  0.55 1.286602540378444 0  0.5 0 0  0 0.75 0  1 0.75 0  0.5 1.5 0  0 0.375 0  1 0.375 0  0 1.125 0  1 1.125 0  0.7720072424407859 0.9279927575592141 0  0.2369660147341462 0.9168810515695116 0  0.75 1.5 0  0.25 1.5 0  0.25 0 0  0.75 0 0  0.5 0.85 0  0 1.3125 0  1 1.3125 0  0 0.1875 0  1 0.1875 0  0.8151785714285714 0.5 0  0 0.5625 0  0.7912795060263956 1.294622674701861 0  0.2063122081232003 1.278693406660268 0  0.1825892857142857 0.46875 0  0.7939338235294118 0.2018382352941176 0  0.2060661764705882 0.2018382352941177 0  0.5 0.35 0  0.6048949210808516 0.1621878909653493 0  0.3951050789191484 0.1621878909653493 0  0 0.9375 0  1 0.5625 0  1 0.9375 0  0.8141972910020407 1.109596487353587 0  0.8300504758824617 0.6823233344113842 0  0.1858106595831645 0.7378373085410758 0  0.238295786310014 1.099198431588796 0  0.6580075260652187 0.8122556445489141 0  0.6163841821541198 0.967266913317176 0  0.125 1.5 0  0.35 0.5 0  0.65 0.5 0  0.5 0.65 0  0.8469874054402771 0.3478957913091444 0  0.3245383322568082 1.370320036919204 0  0.875 1.5 0  0.625 1.5 0  0.3893319639748608 0.9654366071334702 0  0.3223346093442226 0.7956602451451316 0  0.889714748531926 0.84375 0  0.125 0 0  0.875 0 0  0.1255889869382551 1.008856943713003 0  0.09944003484435231 0.84375 0  0.1382805521602539 0.3303643480715599 0  0.1366004694630674 0.6038634908658245 0  0.8990783052805509 1.214042471714644 0  0.668658096406439 1.365345830213541 0  0.1256028235987354 1.171715077169584 0  1 1.03125 0  0.8771001575862699 0.9992802925544542 0  0.375 1.5 0  0.375 0 0  0.625 0 0  0.6903369446057199 1.073113088240991 0  0.2508055501622219 0.5673522822942192 0  0.1875 1.397372561873074 0  0.7763483628448028 0.8097040473126911 0  0.7228926390269661 1.192219694772317 0  0.425 0.7397022019570473 0  0.502880832992453 0.9635283571381553 0  0.575 0.7350267602343212 0  0.4360607236286478 1.401581848014667 0  0 0.09375 0  0.117501592172302 0.120210456229736 0  0 1.40625 0  0.8895805301329724 1.374303686755315 0  1 0.09375 0  0.8932064825261059 0.140625 0  1 0.46875 0  0.7491117359292689 0.4068056351799293 0  0.7325892857142857 0.575 0  0.9077195128926427 0.2526498093370785 0  0.5535898384862248 1.4 0  0.2862335767983502 0.1135875300027696 0  0.6875 0.09008767814013303 0  0.425 0.2686897619023091 0  0.575 0.2686897619023091 0  0.2473344065696833 0.3057417823420628 0  0.7453015779946386 0.2985879063046734 0  0.5 0.1150143090901798 0  0.7685591996099543 1.396893159654718 0  0.3101877663965869 1.26674953462598 0  0.1077951867849426 1.323907731025259 0  1 0.65625 0  0.8891650081440881 0.5857332208147272 0  0.1007677805315621 0.2272256552865915 0  0.7968715917092577 0.09549815361541228 0  0.3261120109539702 0.2390008113368489 0  0 0.46875 0  0.09140542126065337 0.4216592458712581 0  0.35 0.425 0  0.7311434567761511 0.7156357995802678 0  0.2919618505553527 1.007643466945126 0  0.08983837159042833 0.6970644256489388 0  0.6682645595483953 0.237422322813065 0  0.8998020018038841 0.4383187780156251 0  0.3181107827910294 1.151262931136927 0  0.3720333480364825 1.058947728854826 0  0 1.21875 0  0.1003609880062736 0.5161452023746008 0  0 0.28125 0  1 0.28125 0  1 1.21875 0  0 0.65625 0  0 0.84375 0  0 1.03125 0  1 0.84375 0  1 1.40625 0  0.9093009528131841 1.090733220877184 0  0.7860227258733221 1.02043933632054 0  0.2307441467224153 0.8218289487513623 0  0.2528411345438668 0.6657600013847179 0  0.4084926922343957 0.8315748448273622 0  0.9202166509295927 0.703125 0  0.3291025750926692 0.8910969320761761 0  0.2156003274906323 1.187751415797996 0  0.7014659962158134 1.28056544327123 0  0.2003567957464576 0.07840869841509678 0  0.8104055170896122 1.207813336544415 0  0.09876309307291065 1.413676816133377 0  0.2077866146074518 0.3843959659369329 0  0.2665605884847265 0.4478926490851416 0  0.8511945383881471 0.7662478318744792 0  0.08439847728796501 1.090289510633832 0  0.5 0.2101535921113944 0  0.4197556514239601 0.07679209038960186 0  0.5625 0 0  0.59375 0.0784662732531748 0  0.08714495587406729 0.9303213966261739 0  0.7036417274683815 0.9850594824934642 0  0.6755320268986503 0.9000552383136148 0  0.5860738747831671 0.8809615541428588 0  0.2088643337429009 1.020440832220938 0  0.7325892857142857 0.4885336903971964 0  0.4471147131617949 1.024481429651863 0  0.9313289977941566 0.5146846620677518 0  0.9180219872311914 1.295577203732315 0  0.557548036763429 1.02868260590063 0  0.4451604117585401 0.9081923089371269 0  0.654058422565956 0.7332765200871801 0  0.7006786775708823 1.437898431814794 0  0.8093088642695168 0.6032446443778432 0  0.9237739500172332 0.06517639997702245 0  0.0625 0 0  0.9375 1.5 0  0.916328826652307 0.9241852991743037 0  0.171873989501834 0.8734121241734827 0  0.9285477532453221 0.3329160394873349 0  0.8313221886708546 0.2709216822179099 0  0.739498116874331 0.1471237652498467 0  0.1620375184655173 1.082817874707448 0  0.8242493456480263 0.4235545458621132 0  0.08092324714630188 1.24362538269709 0  0.3937094327312218 1.338112874304002 0  0.4996428508906701 0.7259062340301533 0  0.575 0.35 0  0.65 0.575 0  0.65 0.425 0  0.425 0.35 0  0.575 0.65 0  0.425 0.65 0  0.35 0.575 0  0.2634457364051707 1.421466625293684 0  0.2456683338177991 1.345762439477909 0  0.2639893318360002 0.7433347689534138 0  0.3507285030897302 0.725595745012912 0  0.8125 1.5 0  0.8370966351013709 1.428601215583214 0  0.1159182816951397 0.7690143386662499 0  0.07268341085386848 0.295831542634192 0  0.5632433583437957 0.8093064345680889 0  0.2799069474529262 0.3713889743612331 0  0.06036875067228691 0.609375 0  0.6171745445061244 1.082825455493875 0  0.1649291821849979 0.2622806563448759 0  0.9448573742659629 0.796875 0  0.819878068142786 0.8705255731026844 0  0.1754166553402996 0.9557718819026461 0  0.3125 0 0  0.3456514073649527 0.06854302435898529 0  0.179013816916958 0.6643092150062141 0  0.1685024487938309 0.5393386310926891 0  0.6629601924713451 1.144598607844157 0  0.598818411646755 1.341812641225657 0  0.6280839083339949 1.42659529326364 0  0.8467953663565162 0.9356556797149647 0  0.7209953524450999 0.6452061385343574 0  0.4942305993535075 0.2800767960556972 0  0.3061584457706445 1.082375355492541 0  0.3685543739956368 1.427850231385615 0  0.05227396747452195 0.794166041256576 0  0.3125 1.5 0  0.9496457419399936 0.984375 0  0.04954054144752973 1.359375 0  0.6737459127500345 0.1685001996464485 0  0.06628889425102936 0.1670183213191904 0  0.7179318144233049 0.8459436723546736 0  0.858285790039315 1.160480191818246 0  0.936808362524298 1.155092021473656 0  0.8548602347007285 1.267284087448593 0  0.9334213203093593 1.429572546872906 0  0.7313228343711509 1.340857410425121 0  0.05405463371455387 1.171875 0  0.1503883748403896 1.236950319791893 0  0.463653656573043 0.7940666406854493 0  0.05801660590855892 0.9932572163232567 0  0.09375 0.05838980176088906 0  0.3263950934941324 0.169863961403198 0  0.934725376680476 0.6364845845163584 0  0.0625 1.5 0  0.7156357623587829 0.7798871936803032 0  0.53125 0.05750715454508989 0  0.7289531798358591 0.2120513939389277 0  0.8611293008453803 0.08371275956016357 0  0.7931485975328414 0.7362462304195524 0  0.6632452451477077 1.224524506211694 0  0.6506492327121354 1.022084357310594 0  0.7430305338519925 1.12271278939875 0  0.2972167782079263 0.6125 0  0.08140105122587579 0.3588411210502321 0  0.8413482178663922 1.051986218878298 0  0.8441204858756779 1.329910317324504 0  0.9492429838281583 1.35135714298749 0  0.1714358186485003 0.7995424813790447 0  0.2598323266513226 0.2406306847305864 0  0.9375 0 0  0.6875 1.5 0  0.4375 0 0  0.1875 0 0  0.8125 0 0  0.6875 0 0  0.5625 1.5 0  0.4375 1.5 0  0.1875 1.5 0  0.8576207303520328 0.2120296334907739 0  0.2627640498257702 0.1728052841079521 0  0.1800607144524293 0.1411943334622621 0  0.2542163078251953 1.237640660837701 0  0.7591619624360891 1.242034861729323 0  0.04972001742217615 0.8808474296926768 0  0.3267792715450906 0.9545477668504242 0  0.1531104911380159 0.4140040574183872 0  0.1997848571381072 0.6046315752437972 0  0.2360802435888449 0.5046414722270375 0  0.2872149514161052 0.8461091037879988 0  0.1504082636827923 1.445128669770467 0  0.1851815538777085 1.336174488747262 0  0.4943755093475578 1.367373509401215 0  0.4964151309383568 1.433719520515024 0  0.3029991463633179 0.5375 0  0.6374699876673086 1.289950970400623 0  0.28125 0.05260436823277936 0  0.9412742001334101 0.3930080174094802 0  0.1908821188700928 1.134231497075342 0  0.3861268729108649 0.9064648318748592 0  0.5284333082565327 0.9060792218313511 0  0.8750375567166919 0.4932333314793089 0  0.1477326199654788 0.1909551566321114 0  0.3792612549576647 0.7779443610493932 0  0.9342249539166885 0.1922634780484449 0  1 0.140625 0  0.8302507856821559 0.1496309130576249 0  1 0.890625 0  0.9434043801182344 0.8706060349325631 0  0.3382096980264135 1.210656910306839 0  0.5622796583217582 0.2076725143819285 0  0.4583381614272422 0.1625839506007871 0  0.7721118865761186 0.6737867768191619 0  0.5582040803351463 0.1258007114404073 0  0.3000177205020042 0.6985687306279778 0  0 0.234375 0  0.8826713453770464 0.6600511600481319 0  0.7136112836337428 0.35387960538117 0  0.7959066994371263 0.3737904431053162 0  0.6338891054010829 0.2896157183928816 0  0.3499583098309357 1.006508473320714 0  0.9425268362234692 1.042505681182754 0  0.4461145717627564 0.9649688264828293 0  0.5594284226858414 0.9715936951847909 0  0.3104960594866802 0.3004315453087643 0  0.3670693837847625 0.2821125354429394 0  0.6136294557714667 0.693509645088642 0  0.6116178576521086 0.778892695
[...]
<PointData  Scalars="f_292"> 
<DataArray  type="Float64"  Name="f_292"  format="ascii">0.0000000000000000e+00  0.0000000000000000e+00  0.0000000000000000e+00  0.0000000000000000e+00  1.0000000000000000e+00  1.0000000000000000e+00  9.9999999999999989e-01  1.0000000000000000e+00  0.0000000000000000e+00  0.0000000000000000e+00  0.0000000000000000e+00  0.0000000000000000e+00  0.0000000000000000e+00  0.0000000000000000e+00  0.0000000000000000e+00  0.0000000000000000e+00  0.0000000000000000e+00  0.0000000000000000e+00  0.0000000000000000e+00  0.0000000000000000e+00  0.0000000000000000e+00  0.0000000000000000e+00  0.0000000000000000e+00  0.0000000000000000e+00  0.0000000000000000e+00  0.0000000000000000e+00  0.0000000000000000e+00  0.0000000000000000e+00  2.1370486566410388e-01  2.3210423794179807e-01  0.0000000000000000e+00  0.0000000000000000e+00  0.0000000000000000e+00  0.0000000000000000e+00  4.7168504182394078e-01  0.0000000000000000e+00  0.0000000000000000e+00  0.0000000000000000e+00  0.0000000000000000e+00  4.6557824890866412e-01  0.0000000000000000e+00  1.9632325109699207e-02  2.2162975135994106e-02  4.5646885422521377e-01  2.6768508179707828e-01  2.6763489937574297e-01  1.0000000000000000e+00  3.7222070375293886e-01  3.7259025271195911e-01  0.0000000000000000e+00  0.0000000000000000e+00  0.0000000000000000e+00  6.9526858088442695e-02  3.5934630045216331e-01  3.4702022472649230e-01  8.6099280090675079e-02  4.7813778409191454e-01  2.4256296033067784e-01  0.0000000000000000e+00  1.0000000000000000e+00  1.0000000000000000e+00  1.0000000000000000e+00  3.2423903397860282e-01  7.9642774592699559e-03  0.0000000000000000e+00  0.0000000000000000e+00  2.4657537295701082e-01  4.8932289901129511e-01  1.4920593684149350e-01  0.0000000000000000e+00  0.0000000000000000e+00  8.6426632356846125e-02  1.3481093643346592e-01  2.7918667946224662e-01  3.2034732783121000e-01  2.1835661690211765e-02  7.8944230844976357e-03  3.4847526121539248e-02  0.0000000000000000e+00  8.8668483868121317e-02  0.0000000000000000e+00  0.0000000000000000e+00  0.0000000000000000e+00  1.1056156945905470e-01  6.5365303284654763e-01  7.4995331075116732e-03  3.3458591747626004e-01  4.2688205420303195e-02  7.1790111764060760e-01  2.5848867786435631e-01  7.3151271421724084e-01  2.5615998475150342e-03  0.0000000000000000e+00  8.9747716001020841e-02  0.0000000000000000e+00  6.7698679054243229e-03  0.0000000000000000e+00  9.5132915193588061e-02  0.0000000000000000e+00  6.3283321812593729e-01  7.0308860332030698e-01  1.4544690512344596e-01  2.3939478001270241e-03  2.0132918115418594e-01  1.7031270835051351e-01  6.9966297315504578e-01  6.9996986134249628e-01  5.0172740075378019e-01  5.0743909652061747e-01  2.7569087665985165e-01  7.7832545970906017e-03  2.0009162988371576e-02  1.0398531756547773e-02  0.0000000000000000e+00  2.6116928773470333e-01  1.4407679997831452e-01  1.2221303249335670e-01  5.1079327064677071e-01  0.0000000000000000e+00  2.1063812276668162e-01  1.0000000000000000e+00  5.4769749575770910e-01  1.6989394583407624e-01  1.8039068080884690e-01  5.1415548056544624e-01  2.3505726124739112e-01  5.4703498300130785e-02  1.2010490599864011e-01  0.0000000000000000e+00  2.4273050200237822e-01  0.0000000000000000e+00  0.0000000000000000e+00  0.0000000000000000e+00  0.0000000000000000e+00  0.0000000000000000e+00  0.0000000000000000e+00  0.0000000000000000e+00  0.0000000000000000e+00  4.1854920347330384e-02  1.2916183527832026e-01  3.2987456865347481e-01  5.8125168432428476e-01  4.8831061272653514e-01  1.5800622016213964e-01  3.3336449235829579e-01  4.4470194495071877e-02  1.8914560443995858e-02  9.9630367069839423e-02  3.6448899073138037e-02  4.0026043378008185e-03  4.8841680921009256e-01  7.0448169788785553e-01  2.5560721081616555e-01  3.9082748882846734e-02  5.3419888152433892e-01  1.7417194114746301e-01  0.0000000000000000e+00  1.7579439921802897e-01  8.6061507943650944e-02  1.9491748760441469e-01  3.1663647378198356e-01  3.9379261667215565e-01  1.2681966349742466e-01  7.1592160322257048e-01  1.5693430132623942e-01  1.6438375675059727e-01  1.0234109495373867e-02  1.5065113749372874e-01  3.5225108371289604e-01  6.5873597319165422e-01  3.9412567127531037e-03  4.5983245599410061e-01  3.1558496050121058e-02  0.0000000000000000e+00  0.0000000000000000e+00  8.4622882428129015e-02  2.0712770808709977e-01  1.4189647184138940e-01  2.9110173244110166e-01  2.4229075078358808e-01  7.3367165757150882e-02  4.2327903341465478e-01  1.4613113896065679e-02  5.5222553654589203e-03  7.7456202488177794e-01  1.0000000000000000e+00  9.9999999999999989e-01  1.0000000000000000e+00  1.0000000000000000e+00  1.0000000000000000e+00  1.0000000000000000e+00  1.0000000000000000e+00  5.5771394353233486e-03  1.2807162865761928e-02  4.9316751428860645e-01  6.8834768323503526e-01  0.0000000000000000e+00  4.6349242408480476e-03  1.9706415920162268e-01  1.3139043141126544e-01  5.4874456873327648e-01  6.9691167586913061e-01  1.3723738436117480e-01  8.9551270913219710e-02  2.7588329802625622e-01  8.6657046451812561e-02  2.1845967416514561e-01  1.5031375354685386e-01  0.0000000000000000e+00  1.3926423274273572e-01  3.9403591732067228e-01  4.1909082768949879e-01  5.3280238341110869e-02  4.8763777623388070e-03  3.2687889792098850e-03  1.4451203384103781e-01  6.8659767804637073e-01  7.5518175520226594e-01  1.0295078887319897e-01  3.3119671177087471e-03  8.2641461185232482e-02  0.0000000000000000e+00  4.0039460240176121e-02  3.8005691801794900e-03  3.4166463497957206e-01  7.0007286493854376e-02  3.5950416616373077e-01  4.1230729043586212e-02  2.0646273305715966e-02  2.0133846386658969e-02  2.2514639117645393e-03  1.2763557857800190e-02  1.5825624545760635e-02  2.5736642760482070e-02  5.9240123601983308e-01  4.4202192203890669e-02  3.4736066353720216e-02  3.4462568922581344e-01  1.4378528978617405e-01  0.0000000000000000e+00  4.6595762493029308e-01  1.3430802324348162e-01  3.7281675007445420e-01  7.3491159450198740e-02  3.9040120412971957e-01  2.2695176882890473e-02  1.6460460138985772e-01  7.5037762911037323e-02  7.8611834823296090e-01  1.7062757883607932e-01  8.5608140291820289e-02  1.2979694620022107e-02  4.1449377061563543e-03  2.6648702673648761e-01  4.1080511389751179e-01  0.0000000000000000e+00  0.0000000000000000e+00  0.0000000000000000e+00  0.0000000000000000e+00  0.0000000000000000e+00  0.0000000000000000e+00  0.0000000000000000e+00  0.0000000000000000e+00  0.0000000000000000e+00  1.9237490118860734e-01  2.8951938359597257e-01  1.6156922872488538e-01  3.0667207770408905e-02  2.9842261053649771e-02  5.9501030630468528e-02  2.4293110239819016e-01  3.5999443453242669e-01  4.8482862964214685e-01  6.1770572293334525e-01  3.6560804436557004e-01  3.3528837809215124e-03  1.3426191241604506e-02  1.9360089128970502e-03  1.4657109072168423e-03  8.3453851199419649e-01  1.0127559958481646e-02  9.0731527235038842e-02  1.2957759193984072e-01  6.0494759981312367e-02  3.3873090421314589e-01  3.5970358690791093e-01  3.0470839854000015e-01  1.7993484470925447e-01  5.8728292931852133e-01  8.0074932828343284e-02  0.0000000000000000e+00  1.6203299011544656e-01  0.0000000000000000e+00  7.0144905700165641e-02  2.5593528692991287e-02  5.1553527648135311e-01  3.9509030040948906e-01  5.0571594795046415e-01  2.9672622561246337e-01  6.5636418394529195e-01  0.0000000000000000e+00  2.5315674987847625e-01  6.9637170855743025e-01  4.7036638517348867e-01  7.2455968503005364e-01  1.8370876567412289e-01  3.4643759148041069e-02  2.5431250465433264e-01  2.4287594973611121e-01  6.5076825487564138e-01  6.9937160884289595e-01  8.3396492218815277e-01  5.9152317267704324e-01  1.2610333941120885e-01  3.6697768054790914e-01  1.2142561199091133e-01  2.2250597905955774e-01  0.0000000000000000e+00  1.3021732049654366e-03  5.6388154540299384e-01  0.0000000000000000e+00  9.7687948482269304e-03  3.4741035414376604e-03  3.9760029907789596e-02  3.7998481818745716e-01  6.1782525055253779e-01  8.5369047058459790e-01  5.4740706017519325e-01  5.4415630921547475e-01  5.3240695420194217e-01  1.4143557153636555e-01  0.0000000000000000e+00  9.8851801018541630e-02  1.3837283573333861e-01  0.0000000000000000e+00  1.3321659992625354e-01  1.2127477971733212e-01  5.0869381489208743e-01  9.9369093466728682e-03  1.8681585225563774e-01  2.5942461371882691e-01  7.7113510072241293e-02  1.0973862980815707e-01  3.6305923673416352e-03  2.4908176399751161e-01  5.9951800705648692e-02  4.0766510069419565e-01  4.4606707597260854e-02  5.4920886329077087e-02  1.9595826754935250e-02  6.7314297113719767e-03  8.1668208275973795e-03  3.7751464721565042e-01  2.1688918188572490e-03  0.0000000000000000e+00  1.7584613514383193e-01  4.0009597028802239e-02  8.8206585605448318e-01  6.2653105055960959e-02  8.6133029746483214e-01  8.6009381233092108e-01  6.0436855003691003e-02  1.2229441444130267e-01  8.3434125689958261e-01  2.5987580022673074e-01  3.3777095536800649e-03  1.7349977537426432e-02  6.3324597741886091e-01  2.8551942072970277e-01  2.7081211745391275e-03  1.2756619872252781e-02  1.2516349314101671e-01  2.5032765353609465e-01  1.2304333298896474e-02  7.1626512962468514e-01  1.5359911568684859e-01  9.8872785525233514e-02  2.8666074054052881e-01  2.2297038898069899e-01  9.9999999999999989e-01  8.0276063311814161e-01  1.4949827306883554e-01  0.0000000000000000e+00  3.0534765009267981e-02  1.7708243786074146e-01  3.0534114294574100e-01  1.0117896504932838e-01  4.1328711278029978e-01  1.3946018380748013e-01  1.1024645046131341e-01  7.7308909937139078e-03  1.4062095326089799e-01  0.0000000000000000e+00  7.9344667302598107e-02  0.0000000000000000e+00  2.2229529483172741e-01  0.0000000000000000e+00  2.8086609829872816e-01  1.6427688861819631e-03  0.0000000000000000e+00  8.3310326914034982e-01  1.6209588922176594e-03  4.7292748922144795e-01  0.0000000000000000e+00  4.3392019764784001e-01  8.3597583641721075e-03  0.0000000000000000e+00  1.7181446202245110e-01  1.6442171113288886e-01  6.1660235914112982e-01  4.4913003908380600e-01  8.5190681722798445e-01  8.2741303102056529e-01  2.1402044946313076e-01  5.8984211246409646e-01  3.7260551363978955e-01  4.1003191632584327e-02  5.9763275938297736e-02  1.9533969602166464e-02  6.1725856517585088e-02  0.0000000000000000e+00  3.7536277953197889e-02  9.0378263691396232e-02  3.9788936735535539e-03  4.7872487390365238e-02  0.0000000000000000e+00  2.9279001607870192e-01  2.2745948134017627e-01  1.0000000000000000e+00  3.0198061466585300e-02  2.6487376697525383e-01  4.1982465963702992e-01  3.5764980568920829e-01  6.3978162317760012e-01  9.1104639111793284e-02  3.1779081760248357e-01  1.3931563855072097e-02  2.0329521602395358e-03  8.7240210593502954e-02  0.0000000000000000e+00  7.0229490917920329e-02  2.6967720022619818e-01  0.0000000000000000e+00  0.0000000000000000e+00  0.0000000000000000e+00  0.0000000000000000e+00  0.0000000000000000e+00  0.0000000000000000e+00  0.0000000000000000e+00  0.0000000000000000e+00  0.0000000000000000e+00  0.0000000000000000e+00  0.0000000000000000e+00  0.0000000000000000e+00  0.0000000000000000e+00  0.0000000000000000e+00  1.5807316895283243e-03  9.4452037415307508e-04  2.5329995783389325e-01  4.8783529588057983e-01  1.4496288124619056e-01  4.3390766095715372e-03  3.9857685475420646e-01  1.0080842281096716e-01  6.5366592985163022e-02  3.3500483886479338e-01  5.3796139891510564e-01  8.6370612902875468e-02  1.0935472019456408e-01  3.9250827369276603e-01  1.4061000820597817e-03  3.1888002188162501e-01  4.4026839214619945e-01  1.0979695581204067e-02  3.7821929334341128e-02  3.1153983310360223e-02  1.9114959659390560e-02  5.6915885326205728e-02  1.2464017786204016e-02  2.8345561773095707e-02  2.0828659570531684e-02  1.9108959451032895e-01  2.2934970811703573e-01  2.7551493658742654e-01  4.2167367131801178e-02  3.8599699973563056e-03  2.5146592178614618e-01  1.1322035533775394e-01  1.0000000000000000e+00  8.3046187135135174e-01  3.0394844082288583e-02  4.1440817785369782e-01  3.1890554089010803e-01  4.1822294134536080e-02  2.8141698939460676e-02  2.6894479850814404e-02  7.3585211661623517e-02  2.6540583404566975e-01  8.0988679245188070e-04  5.6432217677137675e-01  6.0858284807706045e-03  1.5413215164537289e-01  8.1525548477334009e-01  5.4396283371807042e-01  3.8253264807371573e-01  4.7860637748679241e-01  4.7548965456912651e-01  1.4185299066267640e-01  4.3404506699398311e-03  4.3524196779472099e-02  5.3057066244936455e-03  7.7211332227643592e-02  5.4514264567621251e-01  8.1442705229006307e-01  6.0376470661336328e-02  6.2481666853796047e-01  5.7547437459753292e-01  6.7669894202217495e-01  4.0222328150983082e-02  1.7442005344435036e-02  3.4355768753722721e-01  7.6599983953214179e-01  1.3456093118249943e-01  2.6058436022318193e-01  6.0506074922497710e-01  7.7402921877581896e-02  2.4121752117117414e-03  4.6631747538605928e-03  1.9051399552333584e-01  4.0623111725375438e-01  1.1632043389226139e-01  1.1268026094819772e-02  7.6976061607321733e-02  2.4204473315824950e-02  7.0234686604484500e-03  3.7834014540989608e-01  2.9814948231499324e-02  1.9396832434609967e-01  2.7149451305242622e-01  8.1899221758888127e-02  8.3581864929442529e-01  9.6380949683737907e-02  1.5138577563401967e-01  9.6671261405321257e-02  2.6564221830905465e-02  8.7199511043515657e-02  4.2651967372145617e-03  7.9994377226998026e-03  1.5544081214877872e-02  8.2205890848232779e-02  1.6311377486463460e-01  3.8880359924407769e-02  5.0340791412555275e-01  1.3837279036577175e-02  8.6058244990068955e-01  5.8808573673774334e-01  2.8266760980525112e-03  3.8674308265934515e-01  7.6322707447870383e-02  5.9362190558680077e-02  7.7809415813005323e-02  2.2979169201057520e-01  2.0600893653726529e-01  9.4950467074013892e-03  0.0000000000000000e+00  3.0858951141433455e-01  4.4417635685770818e-01  8.1601820604988648e-03  1.3613594806579289e-02  8.4496751499336012e-02  1.4902250686414231e-01  5.9946172001365962e-02  1.9892964393629385e-02  1.0293293401166650e-02  4.0236392497369829e-02  6.1846459973545183e-03  0.0000000000000000e+00  2.2775573482549595e-03  1.0926131569927238e-02  1.1774052046457352e-01  4.5761895239620487e-02  1.0696640078925593e-01  6.3348481977225202e-01  4.9791288385620680e-01  1.0000000000000000e+00  3.1825722690745051e-01  9.3778933559945821e-02  1.4443323601784563e-01  2.9678142877322794e-01  3.1371368073552569e-01  4.0256611160916830e-03  1.4664335232345233e-01  2.2233938429897895e-01  6.6263157077908839e-03  2.5197376752993428e-01  6.1191027265766126e-02  0.0000000000000000e+00  5.6157056021063261e-03  4.4731661356686675e-01  1.9535624729806494e-01  1.3607973218876432e-01  5.4173971229202433e-01  5.8115837163282980e-01  6.9106645891317020e-01  3.5026875743452623e-01  7.9071222783342693e-02  3.2876552332821646e-01  1.0000000000000000e+00  2.8677111289568239e-02  2.9893184403461809e-01  3.1554787040133547e-01  2.1623939409638340e-01  7.6197169374173992e-02  1.3770921791421178e-01  5.8033106890488698e-02  5.1851895019581429e-01  4.2229796723347063e-01  5.3097718684729966e-01  1.2028738884458464e-02  2.6352565212915602e-01  1.8397073599403957e-01  2.1010502319647417e-01  8.6146861966664184e-02  0.0000000000000000e+00  8.0774802573022747e-04  5.8555730242598483e-02  4.8431544915328806e-02  1.0690527964598210e-02  1.7187671509324442e-02  1.0128170366023052e-01  2.1549686649154720e-01  6.0864591951948453e-02  6.3713476901327903e-01  2.5971406593767965e-01  6.7943200221671263e-01  4.5422969250225120e-01  5.2823800670020848e-01  6.8064454803562291e-01  4.1488189312081897e-02  1.7737325355677364e-02  2.6758078556861581e-01  1.7235486794426988e-01  1.9360762618168322e-02  7.5768068271132610e-02  1.1299178373841048e-01  2.9640565137903019e-01  8.4681086447617371e-01  6.7175878626404978e-03  1.9579196684225437e-03  7.4176877373222164e-02  7.4921168067910063e-02  3.5699811054297859e-01  2.7558648907613648e-01  8.8489826425672125e-01  7.6912222149353859e-01  2.9039388370086735e-02  4.0836409245799371e-01  7.1447875263702387e-01  8.2174949830162791e-01  6.0168679189471505e-03  2.4451927841228015e-03  4.8077369369894790e-02  5.9790232719175185e-01  7.7874255322353636e-01  6.4567549350069164e-01  5.1647935607129647e-01  1.7898254048189965e-01  1.0000000000000000e+00  1.0000000000000000e+00  1.0000000000000000e+00  9.9999999999999989e-01  1.0000000000000000e+00  1.0000000000000000e+00  1.0000000000000000e+00  1.0000000000000000e+00  1.0000000000000000e+00  1.0000000000000000e+00  1.0000000000000000e+00  8.0444631483538320e-01  5.5327809723285848e-01  1.8272867137348295e-01  2.7116178634563609e-01  2.3061707258912398e-01  1.8170995423921364e-03  1.0078780492327100e-01  4.1600902846646796e-02  2.4319031750805029e-01  1.3863299171661106e-01  6.6377903352779266e-02  1.9712492664529185e-01  7.0698026923089252e-01  1.6647813837919511e-03  8.1006577101353547e-02  4.0836662968845661e-01  7.8132334933431344e-02  1.3191834699293140e-03  5.9298176957176384e-03  4.0512369132813547e-01  5.8811028322410641e-01  1.9573664056650197e-01  1.4760758439829219e-01  0.0000000000000000e+00  8.9142610682560575e-02  4.2165167583427768e-02  1.1979391459910607e-01  5.4988114851091521e-02  6.8997067770042442e-02  4.7310208617420740e-01  5.2454953122443877e-03  1.6018258897079936e-03  2.5278902067209547e-01  3.2680462761600086e-03  4.5075169457315961e-01  2.0264256848800455e-01  6.2813018149578487e-02  2.0594321017732684e-01  9.7328831266978610e-02  8.4017104946737631e-01  2.8829033894488685e-02  3.3532848182162001e-01  1.1477719152001525e-02  2.8930844541665818e-01  2.9324347838932235e-01  1.2692681708045708e-01  2.0280636815060601e-01  3.0401565674886993e-01  7.6700466458775274e-01  1.1056738434030251e-01  1.3379682753392513e-01  3.7683074654322951e-01  2.9260594228344161e-01  8.6496007311806997e-03  5.3731198576031048e-03  4.1042973909068575e-01  3.2463610702927671e-02  4.6225111760765908e-02  7.7267261121043304e-02  5.6202841717206284e-02  3.6567822804910688e-01  8.3609600177259862e-03  4.7012550126934177e-01  4.5307092904595399e-02  6.6196274665382873e-02  2.1078836617533564e-01  1.8794631225735103e-01  9.2225876814213473e-03  1.8006582097228210e-01  1.1016580695872544e-01  1.6041439719184543e-02  1.0279207168030116e-01  6.9884546578232606e-02  8.2770214479721171e-01  1.0303484686795313e-01  4.3077172134933323e-01  3.0241013576378411e-02  7.5933735986126538e-01  6.2635402682319674e-01  8.2549140276419808e-01  1.6416055319802451e-02  2.3663846541234876e-03  1.3466427756232824e-01  1.4922366866050260e-01  7.0414119807046704e-01  0.0000000000000000e+00  2.0484853467534650e-01  6.2795279873941720e-02  1.0169993923472111e-03  2.0135073906328960e-01  1.1737769997062079e-01  1.8142735210565897e-01  3.2040263675464037e-01  1.6760307525046047e-02  3.2156058795137910e-01  4.1115212484156966e-01  6.8146636537611771e-02  7.3277615613294178e-01  8.7776793866538938e-01  2.9270957119901029e-03  8.4534106756293570e-01  5.9008202869543569e-01  9.3770770773083986e-03  7.6265949859298340e-02  1.0142560401355633e-01  9.8883540193390795e-02  3.9287403895916706e-01  2.3141797136181756e-02  1.5443355597327088e-01  4.2414475275066234e-02  1.8701875599387505e-01  2.7207038958502370e-03  7.6719184789572001e-02  6.2348464015355848e-02  1.8602446873240305e-02  6.7972402785554287e-01  8.0703022883576905e-02  2.0757799008909242e-02  7.7716212528392545e-02  9.0769723042548045e-03  2.7752074007434563e-01  3.7745743261849068e-01  4.1679964017576909e-01  4.0508342332192521e-01  4.4974571387034534e-01  6.2509054392915753e-01  2.2720146138053260e-02  3.4250359973134925e-01  3.3213782983424439e-01  1.2087536341466380e-01  8.6043989221934059e-03  7.6065653355612683e-01  2.0770421472539652e-01  4.1869977066700717e-02  0.0000000000000000e+00  1.8561552482368765e-01  1.9634089063737315e-03  5.0557780978587163e-01  2.6782372906620738e-01  1.4564353373817446e-01  1.5249722035510715e-03  2.3614468286251877e-03  6.8074147194981194e-03  1.5821483816379342e-01  1.9066170785905528e-02  0.0000000000000000e+00  1.9945679679606618e-01  3.2857776486450399e-02  1.7237599966558857e-02  3.4526370181206695e-01  1.4316970467659516e-03  3.794042354350522