<?xml version="1.0"?>
<VTKFile type="UnstructuredGrid"  version="0.1"  >
<UnstructuredGrid>
<Piece  NumberOfPoints="5584" NumberOfCells="10785">
<Points>
<DataArray  type="Float64"  NumberOfComponents="3"  format="ascii">0 1.5 0  0 0 0  1 0 0  1 1.5 0  0.35 0.65 0  0.65 0.65 0  0.65 0.35 0  0.35 0.35 0  0.5968583161128631 1.224868988716485 0  0.6 1.2 0  0.5968583161128631 1.175131011283514 0  0.5876306680043863 1.151824632589828 0  0.5728968627421411 1.131545289407131 0  0.5535826794978996 1.115567207449798 0  0.5309016994374948 1.104894348370485 0  0.5062790519529313 1.100197327157173 0  0.4812618685414276 1.101771274927131 0  0.4574220708434928 1.109517294753398 0  0.436257601025131 1.122948675722421 0  0.4190983005625052 1.141221474770753 0  0.4070223514111748 1.163187544731532 0  0.4007885298685522 1.18746667664357 0  0.4007885298685522 1.21253332335643 0  0.4070223514111749 1.236812455268468 0  0.4190983005625052 1.258778525229247 0  0.436257601025131 1.277051324277579 0  0.4574220708434927 1.290482705246602 0  0.4812618685414276 1.298228725072869 0  0.5062790519529313 1.299802672842827 0  0.5309016994374948 1.295105651629515 0  0.5535826794978996 1.284432792550201 0  0.5728968627421411 1.268454710592869 0  0.5876306680043863 1.248175367410171 0  0.5 0 0  0.5 1.5 0  0 0.75 0  1 0.75 0  0 0.375 0  1 0.375 0  0 1.125 0  1 1.125 0  0.2364431626261654 0.9150510691915791 0  0.7635359158896152 0.9151242943863466 0  0.75 1.5 0  0.25 1.5 0  0.25 0 0  0.75 0 0  0.4784599497470843 0.8576307053159276 0  0 1.3125 0  1 1.3125 0  0 0.1875 0  1 0.1875 0  0.8151785714285714 0.5 0  0 0.5625 0  0.8049841825030156 1.2385284622115 0  0.2037719235931248 1.276058442736962 0  0.1825892857142857 0.46875 0  0.7939338235294118 0.2018382352941176 0  0.2060661764705882 0.2018382352941177 0  0.5 0.35 0  0.6048949210808516 0.1621878909653493 0  0.3951050789191484 0.1621878909653493 0  1 0.5625 0  1 0.9375 0  0 0.9375 0  0.8300504758824617 0.6823233344113842 0  0.1853775764381173 0.7363215175334108 0  0.2373657759194461 1.09711662946253 0  0.8374351371878859 1.070011329380144 0  0.875 1.5 0  0.125 1.5 0  0.6062042178008371 0.9597305931201837 0  0.625590571903992 0.8045101662315939 0  0.35 0.5 0  0.5 0.65 0  0.65 0.5 0  0.8469874054402771 0.3478957913091444 0  0.375 1.5 0  0.3787535231798475 0.9761249510089064 0  0.625 1.5 0  0.7018167422048079 1.353350655050184 0  0.125 0 0  0.875 0 0  0.8734283952807402 0.8206195856544944 0  0.3207274586184861 0.7943099821949678 0  0.125852356274071 1.006646603510477 0  0.3125 1.370355983993781 0  0.1001109813395758 0.84375 0  0.8361527859043789 1.370292305154549 0  0.1382805521602539 0.3303643480715599 0  0.1361745501195396 0.6030339622396202 0  0.6976642487515485 1.065518809512825 0  0 1.21875 0  0.1254577894064276 1.168731749028377 0  0.375 0 0  0.625 0 0  0.7510140097352347 0.7894182637236186 0  0.8790452297356347 0.9550856501780677 0  0.1155816828226797 1.370862211451547 0  0.2507810137401653 0.5674837274123802 0  0.425 0.7403372498932393 0  0.4342557579616577 1.402339971385472 0  0.4926856620014251 0.9707967391297243 0  0.5902938770522754 1.391884256109841 0  0.8947278994479594 1.168427133233751 0  0 0.09375 0  0.117501592172302 0.120210456229736 0  1 0.09375 0  0.8932064825261059 0.140625 0  1 0.46875 0  0.7491117359292689 0.4068056351799293 0  0.7325892857142857 0.575 0  0.9077195128926427 0.2526498093370785 0  0.2862335767983502 0.1135875300027696 0  0.6875 0.09008767814013303 0  0.2876275375426245 1.199176877928066 0  0.425 0.2686897619023091 0  0.575 0.2686897619023091 0  0.2473344065696833 0.3057417823420628 0  0.5316453886109539 0.752574668986595 0  0.7453015779946386 0.2985879063046734 0  0.5 0.1150143090901798 0  1 1.40625 0  0.7013323955547213 1.225434196391494 0  0.9036798074538328 1.272382980180387 0  1 1.03125 0  1 0.65625 0  0.8891650081440881 0.5857332208147272 0  0.1007677805315621 0.2272256552865915 0  0.7968715917092577 0.09549815361541228 0  0.3261120109539702 0.2390008113368489 0  0 0.46875 0  0.09140542126065337 0.4216592458712581 0  0.35 0.425 0  0.7651164422570014 1.143468154563297 0  0.09472466320369284 1.26853663142193 0  0.08921587689551835 0.6960941425748194 0  0.2141236400534484 1.40281708845578 0  0.6682645595483953 0.237422322813065 0  0.8998020018038841 0.4383187780156251 0  0.3309306437258974 0.8912206104221932 0  0 0.28125 0  1 0.28125 0  0 0.65625 0  0 0.84375 0  0 1.03125 0  1 0.84375 0  0 1.40625 0  1 1.21875 0  0.339382516603148 1.073223882837075 0  0.286317207567006 0.9951759182622995 0  0.1006473955151142 0.5155906191247079 0  0.2531855684977951 0.6655018939994033 0  0.1938148195674164 0.8305707362095592 0  0.7348836338756599 0.694801913506495 0  0.9202166509295927 0.703125 0  0.2003567957464576 0.07840869841509678 0  0.6711458985020725 0.8890206767366003 0  0.6966131207025332 0.975435518234489 0  0.2077866146074518 0.3843959659369329 0  0.9244179047216532 1.359375 0  0.2665605884847265 0.4478926490851416 0  0.2902364272115729 1.286194351631958 0  0.08339241575003152 1.087586295501586 0  0.8015937827884826 0.9920390441018914 0  0.9252732102535306 1.078125 0  0.5 0.2101535921113944 0  0.4011776650759537 0.8220246829162232 0  0.4197556514239601 0.07679209038960186 0  0.5625 0 0  0.59375 0.0784662732531748 0  0.6875 1.5 0  0.7325892857142857 0.4920267325680271 0  0.204835680871921 1.193046767632362 0  0.08637007015464784 0.9294035406844091 0  0.5768760768787522 1.036630020704703 0  0.9314290531500782 0.890625 0  0.5683106907030949 0.8761770079449056 0  0.9313289977941566 0.5146846620677518 0  0.2053060218923775 0.9900170894042093 0  0.6752157373212424 1.146033498046018 0  0.8093088642695168 0.6032446443778432 0  0.575 0.65 0  0.6125 0.7232589482421361 0  0.5111121719842455 1.379761122853962 0  0.0625 0 0  0.9375 0 0  0.9375 1.5 0  0.0625 1.5 0  0.4111048225600165 0.9021509249006177 0  0.7623143099118797 1.41471375527577 0  0.9285477532453221 0.3329160394873349 0  0.8313221886708546 0.2709216822179099 0  0.6550346876206982 1.28956864569925 0  0.3718461865848758 1.320344441155674 0  0.4384030243440347 1.030840154672398 0  0.7459267962262177 1.289224489139695 0  0.739498116874331 0.1471237652498467 0  0.15994416688928 1.099378233153651 0  0.8242493456480263 0.4235545458621132 0  0.6837310563681893 0.7522056462208524 0  0.1593713391201386 0.9009459281285223 0  0.575 0.35 0  0.425 0.35 0  0.65 0.575 0  0.65 0.425 0  0.35 0.575 0  0.425 0.65 0  0.8877888478983736 1.425498582050861 0  0.1154686220942957 0.7683869154567289 0  0.927740984819444 0.07421434345370401 0  0.6636888337009441 1.423651905338443 0  0.3111176381890867 0.717236795593199 0  0.2699449164274207 0.8486490283800668 0  0.2538235200489132 0.7635161660860261 0  0.07268341085386848 0.295831542634192 0  0.2809346456198019 0.3756380899622044 0  0.06016708416056031 0.609375 0  0.1649291821849979 0.2622806563448759 0  0.8370719191227541 0.8894885899614881 0  0.8236216120582218 0.7602908797315113 0  0.9312970360380535 0.7756006047787171 0  0.3125 0 0  0.3456514073649527 0.06854302435898529 0  0.2789852006100069 1.434086156320743 0  0.3629868944608692 1.425904089962363 0  0.9317696005208419 1.005480200516477 0  0.1683911127111243 0.5390059746847954 0  0.1794577493844935 0.662781405933159 0  0.8125 1.5 0  0.6309227210903018 1.09029723761436 0  0.5625 1.5 0  0.4942305993535075 0.2800767960556972 0  0.7679690211037765 1.054718968911644 0  0.06970979214076235 1.427485138572825 0  0.240470326122646 1.336863484064373 0  0.05005549066978789 0.796875 0  0.2989222212362155 1.130208202029246 0  0.6737459127500345 0.1685001996464485 0  0.06628889425102936 0.1670183213191904 0  0.8390382472923372 1.300041379958112 0  0.05401127896696312 1.171875 0  0.6427040146773578 1.017693340474958 0  0.05779864542571933 0.9927197249867298 0  0.1498357829311211 1.230872814682862 0  0.8618649220619343 0.08214238637309584 0  0.09375 0.05838980176088906 0  0.8265218610406583 1.173605382038775 0  0.7820022533001192 0.8498081290429536 0  0.149793317731302 1.433279421988418 0  0.3263950934941324 0.169863961403198 0  0.9519733644606326 0.609375 0  0.53125 0.05750715454508989 0  0.53125 1.442255127775078 0  0.7289531798358591 0.2120513939389277 0  0.5108622032577443 1.034301592763787 0  0.06472987771920244 1.327938900389769 0  0.1731653006354684 1.336007864517053 0  0.2972650224186558 0.6125 0  0.5332004607667531 0.8193527264726512 0  0.4718056302720849 0.7898339058901962 0  0.6914972922139961 0.8235167360098176 0  0.08140105122587579 0.3588411210502321 0  0.3485736733566453 1.261371637767952 0  0.7661854106029202 1.350393584920444 0  0.8236846226501098 1.436009827398209 0  0.2598323266513226 0.2406306847305864 0  0.3125 1.5 0  0.4375 0 0  0.1875 0 0  0.8125 0 0  0.6875 0 0  0.4375 1.5 0  0.1875 1.5 0  0.8622855643385526 0.2015833648813345 0  0.8279152575258683 0.1495663913815799 0  0.2627640498257702 0.1728052841079521 0  0.1800607144524293 0.1411943334622621 0  0.8703699675038892 1.016940210063741 0  0.1531104911380159 0.4140040574183872 0  0.05005549066978791 0.8796488403725388 0  0.8850785900303794 0.6496168012286881 0  0.546629235950962 0.9363796584761916 0  0.6022430398015765 1.327804788323255 0  0.2360971875471279 0.504709688284624 0  0.1958628693609714 0.5929478639628611 0  0.3029466007669289 0.5375 0  0.7120149004037095 0.6353169502744931 0  0.28125 0.05260436823277936 0  0.9412742001334101 0.3930080174094802 0  0.1972681249417996 1.050771436715852 0  0.7779012740651824 0.6537420776419078 0  0.4723056998978993 1.447684302589501 0  0.3741601757160196 0.769828283787137 0  0.3723220811953492 0.707769671709656 0  0.4625 0.6951686249466197 0  0.8750375567166919 0.4932333314793089 0  0.1477326199654788 0.1909551566321114 0  0.3485723657661551 1.161119991775023 0  1 1.171875 0  0.936062194474129 1.217231089222022 0  0.9342249539166885 0.1922634780484449 0  1 0.140625 0  0.7271875340276345 0.8695792902604712 0  0.5622796583217582 0.2076725143819285 0  0.4377203416782418 0.2076725143819285 0  0.3832688090653011 0.2281554719838642 0  0.94241244
[...]
<PointData  Scalars="f_32"> 
<DataArray  type="Float64"  Name="f_32"  format="ascii">0.0000000000000000e+00  0.0000000000000000e+00  0.0000000000000000e+00  0.0000000000000000e+00  0.0000000000000000e+00  0.0000000000000000e+00  0.0000000000000000e+00  0.0000000000000000e+00  1.0000000000000000e+00  1.0000000000000000e+00  1.0000000000000000e+00  9.9999999999999989e-01  1.0000000000000000e+00  1.0000000000000000e+00  1.0000000000000000e+00  1.0000000000000000e+00  9.9999999999999989e-01  9.9999999999999989e-01  1.0000000000000000e+00  1.0000000000000000e+00  1.0000000000000000e+00  1.0000000000000000e+00  1.0000000000000000e+00  1.0000000000000000e+00  1.0000000000000000e+00  1.0000000000000000e+00  1.0000000000000000e+00  1.0000000000000000e+00  1.0000000000000000e+00  1.0000000000000000e+00  1.0000000000000000e+00  1.0000000000000000e+00  1.0000000000000000e+00  0.0000000000000000e+00  0.0000000000000000e+00  0.0000000000000000e+00  0.0000000000000000e+00  0.0000000000000000e+00  0.0000000000000000e+00  0.0000000000000000e+00  0.0000000000000000e+00  2.3126319381434554e-01  2.3144736933834711e-01  0.0000000000000000e+00  0.0000000000000000e+00  0.0000000000000000e+00  0.0000000000000000e+00  2.9678338071578608e-01  0.0000000000000000e+00  0.0000000000000000e+00  0.0000000000000000e+00  0.0000000000000000e+00  1.1730417229324098e-02  0.0000000000000000e+00  2.8888292005342692e-01  2.8022723958860324e-01  8.8572858450663219e-03  9.4230048278884143e-04  9.4059889815211156e-04  0.0000000000000000e+00  3.5656846695577665e-04  3.5571116730980716e-04  0.0000000000000000e+00  0.0000000000000000e+00  0.0000000000000000e+00  5.1028936881007937e-02  7.7883579041774578e-02  3.7642177953258538e-01  2.3240626499271397e-01  0.0000000000000000e+00  0.0000000000000000e+00  4.4675616938643586e-01  1.9555780728760824e-01  0.0000000000000000e+00  0.0000000000000000e+00  0.0000000000000000e+00  2.9977468281053117e-03  0.0000000000000000e+00  4.6306574302089448e-01  0.0000000000000000e+00  3.3946828778893290e-01  0.0000000000000000e+00  0.0000000000000000e+00  8.5859202695986403e-02  1.6686546468185964e-01  1.5734293883064432e-01  3.2382587694077591e-01  7.5212838706458937e-02  1.3893377330026629e-01  2.4707218985291052e-03  2.4252214027320831e-02  4.8415923868578431e-01  0.0000000000000000e+00  1.8502087755575916e-01  0.0000000000000000e+00  0.0000000000000000e+00  1.3518252644048442e-01  1.3293280237653976e-01  9.3428385439501327e-02  1.9326979459538044e-02  1.1972360959986919e-01  3.7418218118448143e-01  5.2451676272853798e-01  3.9261103572091988e-01  1.5309428170274014e-01  0.0000000000000000e+00  3.5994629176230522e-04  0.0000000000000000e+00  4.1247954796016215e-04  0.0000000000000000e+00  4.1692397936840039e-03  1.9003330577139783e-02  9.8357784025418244e-04  3.9198317064851078e-04  2.8547216976107742e-04  5.2255535145828236e-01  2.9545614161069272e-04  2.9641609199284051e-04  1.8620356074273692e-03  1.3881401550664463e-01  1.7045354731291048e-03  2.0921493501529386e-04  0.0000000000000000e+00  5.4191614333286586e-01  1.1982935510734873e-01  0.0000000000000000e+00  0.0000000000000000e+00  1.8173146864516865e-02  8.4917797453719823e-04  3.5407898399523980e-04  7.4071680745338008e-04  0.0000000000000000e+00  4.0787235280244872e-03  0.0000000000000000e+00  3.8906476709259968e-01  1.1885844504829646e-01  3.2007533534836694e-02  1.4723582799064749e-01  7.0527539015842694e-04  5.0584350926161405e-03  2.8698553109965863e-01  0.0000000000000000e+00  0.0000000000000000e+00  0.0000000000000000e+00  0.0000000000000000e+00  0.0000000000000000e+00  0.0000000000000000e+00  0.0000000000000000e+00  0.0000000000000000e+00  5.7681676397765091e-01  3.7178194631300027e-01  9.6264817807044916e-03  5.2684420539777406e-02  1.3458741894072151e-01  6.9703863778775438e-02  3.0016250208982860e-02  2.8350471526967131e-04  2.8259092941542652e-01  3.7060697094315381e-01  4.1024971698488139e-03  6.4335613895768265e-02  5.3516030156512519e-03  4.4850171547286433e-01  1.1666216043165584e-01  2.4625395603279712e-01  1.0321583867625786e-01  2.7408390454747316e-04  2.2662881563007942e-01  1.6953151198519458e-04  0.0000000000000000e+00  1.8073732572360677e-04  0.0000000000000000e+00  8.1137633640134266e-03  3.2460712250352258e-01  8.7811660873905933e-02  6.5818290027407178e-01  6.1494190285573437e-02  3.1827252588238469e-01  6.8958808737681716e-03  2.5407402989833977e-01  6.2804847408174125e-01  2.9201826197201585e-02  0.0000000000000000e+00  9.5589936098585501e-02  5.0694977088970639e-01  0.0000000000000000e+00  0.0000000000000000e+00  0.0000000000000000e+00  0.0000000000000000e+00  3.5366836389486539e-01  1.4854894154511350e-01  1.5676083559500640e-03  1.6167397514854642e-03  5.9173457622413195e-01  5.8350458653476900e-01  6.6035752534966308e-01  3.6301918071873401e-01  5.6348647003555072e-04  2.3653444998174450e-01  5.9443693572962366e-03  1.2209573866026091e-01  1.4818953907466600e-01  0.0000000000000000e+00  0.0000000000000000e+00  0.0000000000000000e+00  0.0000000000000000e+00  0.0000000000000000e+00  0.0000000000000000e+00  5.4237695855647187e-02  6.1218373418193008e-02  1.3801582463969923e-04  2.1278282993478242e-01  8.7869368593877811e-02  1.9754449085001818e-01  1.1692317752007940e-01  1.1622432618932619e-03  2.4286454386178908e-03  1.2457710332856612e-02  1.4978573476738791e-03  1.4526793510290825e-01  8.6244073413692238e-02  3.8278040346210809e-02  0.0000000000000000e+00  1.9442453984958708e-04  1.4261041378111847e-01  2.2857541334472090e-01  8.3847750493309142e-02  1.6161966645295709e-02  4.5892743110550707e-02  0.0000000000000000e+00  6.8243830224702962e-01  0.0000000000000000e+00  1.9259050811668533e-04  3.4032014322319382e-01  3.2060756141200526e-02  2.7462425206716506e-01  3.0968066524938741e-02  5.3996372214570421e-01  5.2138812405786057e-04  3.5328206043467886e-04  1.9428128871819336e-01  7.6524821188085929e-02  5.1319770238407836e-01  6.8982078092090462e-02  2.1311080606538926e-01  2.5628594404055767e-04  1.3304849947521637e-04  2.6708644077675364e-01  1.6390429857307889e-01  6.6943163643732470e-02  5.2478680564187262e-04  1.0026106177839557e-02  1.1557070303393062e-04  2.2704822094692628e-01  8.7869551005525918e-04  7.0767223564540327e-01  6.4759382401587420e-02  1.8175552931210626e-01  2.2082517569845424e-02  2.3505017785553967e-01  1.9168830598205316e-01  1.9337821206956174e-01  2.1769064355600868e-03  6.6480331168640006e-01  2.4542760127470303e-01  7.7610602679849497e-02  1.1129934838168295e-03  0.0000000000000000e+00  0.0000000000000000e+00  0.0000000000000000e+00  0.0000000000000000e+00  0.0000000000000000e+00  0.0000000000000000e+00  0.0000000000000000e+00  8.4124203844125438e-04  5.9103444149805312e-04  6.8406270318251800e-04  5.5342897512709584e-04  1.6594901560572894e-01  5.2837446457663223e-03  4.3203669172094866e-02  2.9792320806415536e-02  4.3697894101326307e-01  6.2469766099281665e-01  1.1169644225880002e-02  2.6889098460390577e-02  8.1405103914906057e-03  3.3165311011585617e-02  1.7687412561647272e-04  2.1844971322383861e-03  2.7965256285378792e-01  4.6948370353884022e-02  2.0567213925994576e-01  1.5184247871290651e-01  7.6132011975633920e-02  6.0576999363200552e-02  9.4000828695328682e-03  7.9555614856351283e-04  7.2330276511063285e-01  0.0000000000000000e+00  8.7253003595670300e-02  4.4026898130772871e-04  0.0000000000000000e+00  2.1984637988049374e-01  3.2208562104101782e-04  3.2150474053517318e-04  4.5864397868318219e-04  4.1615541110539771e-02  2.4498560656699051e-04  2.4948892074415352e-04  6.8173560414407613e-02  0.0000000000000000e+00  7.5402394104897236e-03  0.0000000000000000e+00  1.9253109027301779e-03  3.7804559497076782e-03  6.2712219638627564e-01  4.0099241567985461e-01  5.0974813051310197e-01  4.9407463377038681e-04  1.7789767675601448e-01  8.2392520378205367e-02  1.9262921196188496e-01  3.9815613233035962e-01  3.0766473738482691e-02  3.9054052038261389e-01  1.7409934122029183e-01  1.0605818903646914e-03  4.9200761647546565e-04  1.1290595271706252e-01  1.7859823122299098e-02  1.0434546556701733e-04  4.2379774910200751e-01  3.6235312767088340e-01  3.6865747743859723e-01  1.7962936820764448e-03  0.0000000000000000e+00  5.6197664081654650e-02  1.7444462335758262e-04  2.2781697431625628e-03  1.0289149583370936e-03  7.2847319325372046e-03  1.5091111174962693e-02  7.2089789452235445e-02  0.0000000000000000e+00  7.6802817469247640e-03  4.3046327808618249e-03  1.4995119569313275e-01  0.0000000000000000e+00  7.6569726977617047e-02  4.5415056611228439e-04  4.8955278938551082e-04  3.3263423907119318e-04  1.5131337331002526e-04  1.4656595706587767e-04  7.2515732848809045e-01  2.3631553700736514e-03  1.6131283585275256e-04  1.8661912002046382e-01  1.3071510321131649e-03  2.6000367996768425e-02  1.8671085715403901e-01  7.2110556906083423e-02  0.0000000000000000e+00  1.5793256908834824e-01  7.4317197104607088e-02  1.3592799270468925e-04  1.9575801593725610e-04  3.7971653208821809e-01  3.1178195895279959e-01  1.5586393476219561e-04  3.1107043260748734e-03  2.9347148408371776e-01  3.9941256279327636e-01  3.3381755377587892e-04  1.5066276069452622e-01  6.0788811229076600e-01  4.8164770415965402e-01  3.5837987119972693e-03  3.4991509022443087e-03  5.4203054116057636e-01  3.9860844561250508e-01  7.2146092331541278e-01  5.9309413150638687e-02  2.5613796072670218e-02  5.4304758041345859e-02  2.8513903927726997e-01  3.3630395864187609e-04  3.6061668661794521e-01  1.2264468562165987e-01  5.0121634959792571e-01  0.0000000000000000e+00  2.7271396033325773e-01  8.1036760405111471e-02  2.2625619722678131e-01  0.0000000000000000e+00  4.2691498873783346e-01  0.0000000000000000e+00  7.4890371942040119e-03  1.8096636324702084e-03  2.7381069338754322e-04  3.4295987152322641e-02  0.0000000000000000e+00  0.0000000000000000e+00  4.1551288460089740e-04  0.0000000000000000e+00  2.1962759307329726e-03  0.0000000000000000e+00  6.7269584674937752e-02  0.0000000000000000e+00  5.7811109110532310e-01  3.4842029700015464e-01  6.8451303601416369e-01  2.0455894377613651e-01  1.2422440239558515e-01  9.3513867185279473e-02  0.0000000000000000e+00  7.2756951326669694e-01  1.8559606209824005e-02  1.7485132628038111e-01  4.7099686051515427e-01  1.1546888336535520e-01  2.7904062161502241e-01  3.6254825772143179e-01  1.4114609542583643e-04  0.0000000000000000e+00  4.9901023231119588e-03  1.3993196999458747e-03  7.8750685916435484e-02  4.3386027778474494e-02  3.3018137618581044e-02  2.7498418771012921e-04  1.5148231187057654e-02  7.7947011549396664e-02  6.2352400385427109e-02  3.5622100681414376e-01  2.5465266730898140e-01  2.2607812395506205e-01  1.3642274821022745e-03  2.2631861032659709e-01  7.1625883886582524e-03  7.8075403898399825e-04  0.0000000000000000e+00  2.8363773353458233e-01  1.0552490141858575e-01  0.0000000000000000e+00  1.5181119236744198e-04  2.8498262914269045e-03  3.0249065272803249e-01  3.5206821487081691e-01  2.6333134587560821e-04  1.2428358878062526e-01  5.6726434586680530e-02  1.8267572257427730e-01  1.0221545637586658e-01  1.5186764048524606e-02  1.2068489326127495e-01  5.5795304502341219e-05  1.4459982603030849e-01  1.0943830674507095e-01  4.7726621086513862e-04  0.0000000000000000e+00  0.0000000000000000e+00  0.0000000000000000e+00  0.0000000000000000e+00  0.0000000000000000e+00  0.0000000000000000e+00  0.0000000000000000e+00  0.0000000000000000e+00  0.0000000000000000e+00  0.0000000000000000e+00  0.0000000000000000e+00  0.0000000000000000e+00  0.0000000000000000e+00  2.5975283028580926e-01  2.2338157677790418e-01  1.2420243554864123e-02  3.4458124198413049e-04  1.5918779301488320e-04  6.6965410770311196e-01  2.5937000148682204e-03  4.3303463912776098e-02  2.0420062424820799e-02  2.6651895679948148e-04  5.9042520390178023e-02  7.7909992329060261e-04  5.5308965916953542e-02  1.2734992192132871e-01  5.5112720252303060e-01  3.1363446882604992e-02  1.1351232098849171e-04  7.6582496162028779e-02  4.9089845080257916e-01  1.0819095467421717e-01  1.4791778268566455e-01  3.0958813976332940e-02  3.4528407014312703e-03  5.9928434952814483e-02  1.2413005256642000e-01  2.1858535725144446e-02  8.6535418554775895e-02  7.7847580857667617e-05  2.8043728352064836e-02  5.4972926538880562e-01  5.2439018337792809e-01  5.5458678398333065e-04  1.6402058150399951e-01  5.7611652263802479e-02  2.7560424742542966e-03  3.2328461901503349e-03  6.0734737858748359e-03  2.6672161547377116e-04  7.7242238969337629e-01  1.1531496700123768e-03  1.7127907257154205e-02  3.6113193636211943e-01  3.6148214025182979e-01  1.0042483998814150e-03  5.4387803802506459e-03  1.1157995395301300e-01  4.7746204032993095e-02  8.2044982023285792e-02  2.6995626392414224e-03  4.2431208304309197e-03  7.5903025379228150e-03  1.4487876319201775e-02  1.8460133705931800e-01  7.1459880326930608e-03  1.3937415537102496e-01  3.0872473230947247e-04  0.0000000000000000e+00  2.2414763860072941e-04  2.2956094133435659e-01  1.2924521532013072e-01  6.1334368492023547e-02  2.4331508488653267e-01  1.7412420052873800e-01  1.6330238950643321e-03  5.3167883220978768e-04  4.3986984106510912e-01  7.4955727757425505e-01  1.1044557069857892e-02  2.7334756194859292e-04  9.1214808024866808e-05  0.0000000000000000e+00  2.2363197081940784e-04  1.2047456983395763e-01  4.5584298441974963e-01  2.1326629167520092e-01  4.3260081294278130e-01  3.9504939320426695e-02  1.7299058202964182e-01  1.8752028023460586e-04  5.8749369275608543e-01  4.5728015896478763e-02  1.9838193972814472e-01  2.2337814223571437e-01  6.2689973644370858e-02  1.8149479728221421e-04  3.0699792076943921e-01  6.2461866924853386e-02  3.3175821866715922e-02  2.8667841464885968e-01  2.5813521638273484e-01  1.0578963826932467e-03  2.4371208855082796e-03  7.8785098923152097e-01  3.0901193995440966e-02  8.3408357315598522e-02  2.9977513508052434e-01  5.2083910631718221e-04  1.5077292849136554e-02  1.1008876517978085e-01  5.3893073159100335e-01  7.9163513672546948e-01  7.7972668164183800e-01  4.6869259562596147e-02  1.3874616219314029e-01  3.9405988767132177e-01  1.1257149038810386e-01  0.0000000000000000e+00  3.8117684421283556e-02  1.6584961695240330e-01  1.4778356071498230e-01  2.1446435065694133e-01  3.9895081387242882e-02  4.7659477174168851e-04  2.8314581752176202e-02  1.9650474657528164e-01  1.1026183320707905e-02  5.9598037879691457e-01  1.7531865823517598e-03  2.6412045803432538e-01  1.7293589774770984e-01  4.2618569271491158e-01  6.3042055918627951e-03  1.8415720300741747e-02  0.0000000000000000e+00  4.6591945786481091e-02  1.2457196741731933e-02  0.0000000000000000e+00  4.3841585558514679e-01  3.4023718977650974e-01  1.6780999634635652e-01  3.8676147797745147e-01  7.1982545002016229e-01  1.2355369820098160e-01  3.0928673237053889e-01  1.0219911939327066e-01  2.0646766063317286e-02  2.1109728993004900e-01  3.9826447449113600e-01  6.8042908545361399e-04  1.0286546487741745e-01  4.1075233714387875e-04  6.0051817536202435e-04  5.0425048319712418e-01  1.3818618461904455e-04  3.7718950335359996e-01  4.6203193284781019e-01  1.1873763313133416e-02  4.2632761650911628e-03  2.3712657421323496e-01  1.2762409288052140e-03  2.2102168518919095e-03  1.3800944530543101e-03  2.3913911216300007e-01  1.0579482004139302e-03  1.9513180096756641e-01  1.5260621877050665e-01  1.1794555225498270e-01  2.4859644717850532e-01  7.8989905180552503e-02  0.0000000000000000e+00  1.0743490030854818e-02  0.0000000000000000e+00  4.6482833627901484e-05  7.7627487546115597e-03  1.8998222700056824e-02  2.2449363480138321e-02  3.5997128650972821e-02  1.8934991538780691e-01  1.0891540088472403e-01  3.1384083492797588e-01  1.3754557473385245e-01  4.0879257879316649e-01  6.5213927041867688e-03  7.4602510336992972e-02  5.4415214458900074e-02  1.2404971003211604e-01  7.4456271508347815e-01  4.4227772586728037e-01  2.2245752901232058e-01  2.9994026954984027e-01  2.3852736213807901e-04  7.3567894179509289e-04  1.1310101060633455e-01  1.0495697147494756e-02  5.1643306245127175e-03  8.3184874999480581e-03  4.2322059086574916e-02  7.2790227661770568e-02  8.7941996928625921e-02  1.9163161879137497e-01  0.0000000000000000e+00  2.9704290649045290e-01  1.0775716455758168e-04  8.0759802871374697e-01  5.6970199164224728e-03  4.4830251290197153e-02  6.2742018865990834e-01  5.5539079534154301e-01  1.2049332176586181e-04  7.2819046333808723e-01  1.1812609323984923e-03  3.0906856317354829e-04  3.0932114104515970e-04  9.1123805840078231e-02  4.1647290995974751e-04  5.3113783984726692e-04  1.5214626487103807e-02  4.4620076489219436e-03  1.1622700740308194e-01  2.8087570310862270e-01  0.0000000000000000e+00  0.0000000000000000e+00  0.0000000000000000e+00  0.0000000000000000e+00  0.0000000000000000e+00  0.0000000000000000e+00  0.0000000000000000e+00  0.0000000000000000e+00  0.0000000000000000e+00  0.0000000000000000e+00  0.0000000000000000e+00  6.3303792560582064e-02  3.2791712161532059e-02  2.5118613255989229e-04  9.5427510601635144e-05  4.5062620696741257e-01  1.6347645171189799e-04  1.6011650768811908e-04  8.8807875390581046e-05  3.0951220703489640e-04  1.2209506607630439e-02  3.0829172915233451e-03  1.7596648902323893e-03  3.1715330149707843e-02  4.6613873019116383e-04  1.9098697550154321e-03  9.5181220483014125e-04  9.0767356672745630e-02  2.3722507000719675e-01  0.0000000000000000e+00  2.0408995148824549e-01  1.1933909823114990e-03  1.8557612994356105e-04  3.1898153069471503e-02  1.0810760620984434e-03  3.7998497001294818e-02  1.6856971236485354e-02  6.1562093390443974e-02  2.9932281130630706e-02  1.8843682361813401e-03  1.1699840743428231e-03  3.6979523921540976e-02  1.0299640430127317e-01  1.9268706898887978e-02  5.0573826206614433e-03  6.9351065646209773e-04  5.2942222458305667e-04  7.3204582309729120e-03  5.8222714741976763e-04  6.0800024683275219e-04  7.3153830133637415e-04  5.2933028509006788e-02  5.3352014936361561e-02  1.4694184264653753e-01  6.7489590275651518e-02  7.2574047433036540e-02  7.4767444697549934e-01  2.7156730446184454e-02  1.1244817917481248e-03  6.2137398207802841e-01  4.9760628509867219e-02  1.3385121811997636e-01  2.0554736915676920e-02  7.5089150805059753e-04  3.7398076454342691e-02  1.2925374919563029e-01  8.0073322240408806e-01  3.9924374890326159e-02  3.0160094095724577e-01  1.6515788603956689e-04  4.2410887288145648e-02  8.2032478586361190e-01  4.0572413297755289e-01  2.7926135436933830e-01  2.8778199622375694e-01  1.8850685627480523e-01  7.9890424543329697e-01  3.2292058549766435e-03  1.8391922917408215e-01  1.8912898150756763e-01  2.4173569621028015e-01  2.1849580643974905e-04  3.9294768258248944e-04  3.1294951328648057e-01  5.1496266828223114e-01  6.4719317160049066e-04  7.1462439689183436e-04  1.4387932796058708e-01  6.4156509385575311e-01  1.0431981051255959e-04  5.3631931386403975e-01  4.4529656273680102e-01  5.1562140807663481e-01  6.0718255105764740e-01  1.1153689247299901e-01  1.2649279393655015e-03  4.3489145007818925e-01  2.2844433685767599e-04  3.2034484287545656e-02  2.9650316787477076e-02  6.4206640717626406e-01  3.4425155301899920e-04  2.2642828557114283e-04  5.8257437577360590e-04  1.2910070785672580e-02  1.1351903217217385e-02  1.4521456097530672e-01  1.0085448766347611e-04  3.0463886693613207e-01  5.2627303433786237e-04  6.3308593872830421e-04  3.7648750808574084e-02  1.5123579451311170e-03  2.2926304255578273e-01  4.0966072707831253e-01  4.4560449599136692e-01  1.5155763907711352e-04  5.0285031013350405e-02  1.3915701391845272e-02  0.0000000000000000e+00  4.8793137834492989e-02  3.3035518152902149e-01  2.8771733625893231e-01  5.6785731130043549e-01  3.6868636783773820e-02  8.1755618098829064e-04  2.0618083000453941e-02  4.1764321051698323e-04  8.3748045513527158e-01  2.5049537890363958e-04  5.9907077401014974e-01  4.4077361477908091e-02  2.0359614920326656e-04  1.5791567971569734e-01  2.1536561264070997e-02  4.1686048989402185e-04  1.2316173903869362e-01  7.3069103823667194e-05  7.5830294153436339e-01  8.8625215376500542e-04  2.0242744749565672e-01  3.6659987213902873e-02  0.0000000000000000e+00  1.4258958681016409e-01  8.1264834856412804e-01  1.7186168462117661e