<?xml version="1.0"?>
<VTKFile type="UnstructuredGrid"  version="0.1"  >
<UnstructuredGrid>
<Piece  NumberOfPoints="1442" NumberOfCells="2689">
<Points>
<DataArray  type="Float64"  NumberOfComponents="3"  format="ascii">0 1.5 0  0 0 0  1 0 0  1 1.5 0  0.35 0.65 0  0.65 0.65 0  0.65 0.35 0  0.35 0.35 0  0.5866025403784438 1.25 0  0.6 1.2 0  0.5866025403784438 1.15 0  0.55 1.113397459621556 0  0.5 1.1 0  0.45 1.113397459621556 0  0.4133974596215561 1.15 0  0.4 1.2 0  0.4133974596215561 1.25 0  0.45 1.286602540378444 0  0.5 1.3 0  0.55 1.286602540378444 0  0.5 0 0  0 0.75 0  1 0.75 0  0.5 1.5 0  0 0.375 0  1 0.375 0  0 1.125 0  1 1.125 0  0.7720072424407859 0.9279927575592141 0  0.2369660147341462 0.9168810515695116 0  0.75 1.5 0  0.25 1.5 0  0.25 0 0  0.75 0 0  0.5 0.85 0  0 1.3125 0  1 1.3125 0  0 0.1875 0  1 0.1875 0  0.8151785714285714 0.5 0  0 0.5625 0  0.7912795060263956 1.294622674701861 0  0.2063122081232003 1.278693406660268 0  0.1825892857142857 0.46875 0  0.7939338235294118 0.2018382352941176 0  0.2060661764705882 0.2018382352941177 0  0.5 0.35 0  0.6048949210808516 0.1621878909653493 0  0.3951050789191484 0.1621878909653493 0  0 0.9375 0  1 0.5625 0  1 0.9375 0  0.8141972910020407 1.109596487353587 0  0.8300504758824617 0.6823233344113842 0  0.1858106595831645 0.7378373085410758 0  0.238295786310014 1.099198431588796 0  0.6580075260652187 0.8122556445489141 0  0.6163841821541198 0.967266913317176 0  0.125 1.5 0  0.35 0.5 0  0.65 0.5 0  0.5 0.65 0  0.8469874054402771 0.3478957913091444 0  0.3245383322568082 1.370320036919204 0  0.875 1.5 0  0.625 1.5 0  0.3893319639748608 0.9654366071334702 0  0.3223346093442226 0.7956602451451316 0  0.889714748531926 0.84375 0  0.125 0 0  0.875 0 0  0.1255889869382551 1.008856943713003 0  0.09944003484435231 0.84375 0  0.1382805521602539 0.3303643480715599 0  0.1366004694630674 0.6038634908658245 0  0.8990783052805509 1.214042471714644 0  0.668658096406439 1.365345830213541 0  0.1256028235987354 1.171715077169584 0  1 1.03125 0  0.8771001575862699 0.9992802925544542 0  0.375 1.5 0  0.375 0 0  0.625 0 0  0.6903369446057199 1.073113088240991 0  0.2508055501622219 0.5673522822942192 0  0.1875 1.397372561873074 0  0.7763483628448028 0.8097040473126911 0  0.7228926390269661 1.192219694772317 0  0.425 0.7397022019570473 0  0.502880832992453 0.9635283571381553 0  0.575 0.7350267602343212 0  0.4360607236286478 1.401581848014667 0  0 0.09375 0  0.117501592172302 0.120210456229736 0  0 1.40625 0  0.8895805301329724 1.374303686755315 0  1 0.09375 0  0.8932064825261059 0.140625 0  1 0.46875 0  0.7491117359292689 0.4068056351799293 0  0.7325892857142857 0.575 0  0.9077195128926427 0.2526498093370785 0  0.5535898384862248 1.4 0  0.2862335767983502 0.1135875300027696 0  0.6875 0.09008767814013303 0  0.425 0.2686897619023091 0  0.575 0.2686897619023091 0  0.2473344065696833 0.3057417823420628 0  0.7453015779946386 0.2985879063046734 0  0.5 0.1150143090901798 0  0.7685591996099543 1.396893159654718 0  0.3101877663965869 1.26674953462598 0  0.1077951867849426 1.323907731025259 0  1 0.65625 0  0.8891650081440881 0.5857332208147272 0  0.1007677805315621 0.2272256552865915 0  0.7968715917092577 0.09549815361541228 0  0.3261120109539702 0.2390008113368489 0  0 0.46875 0  0.09140542126065337 0.4216592458712581 0  0.35 0.425 0  0.7311434567761511 0.7156357995802678 0  0.2919618505553527 1.007643466945126 0  0.08983837159042833 0.6970644256489388 0  0.6682645595483953 0.237422322813065 0  0.8998020018038841 0.4383187780156251 0  0.3181107827910294 1.151262931136927 0  0.3720333480364825 1.058947728854826 0  0 1.21875 0  0.1003609880062736 0.5161452023746008 0  0 0.28125 0  1 0.28125 0  1 1.21875 0  0 0.65625 0  0 0.84375 0  0 1.03125 0  1 0.84375 0  1 1.40625 0  0.9093009528131841 1.090733220877184 0  0.7860227258733221 1.02043933632054 0  0.2307441467224153 0.8218289487513623 0  0.2528411345438668 0.6657600013847179 0  0.4084926922343957 0.8315748448273622 0  0.9202166509295927 0.703125 0  0.3291025750926692 0.8910969320761761 0  0.2156003274906323 1.187751415797996 0  0.7014659962158134 1.28056544327123 0  0.2003567957464576 0.07840869841509678 0  0.8104055170896122 1.207813336544415 0  0.09876309307291065 1.413676816133377 0  0.2077866146074518 0.3843959659369329 0  0.2665605884847265 0.4478926490851416 0  0.8511945383881471 0.7662478318744792 0  0.08439847728796501 1.090289510633832 0  0.5 0.2101535921113944 0  0.4197556514239601 0.07679209038960186 0  0.5625 0 0  0.59375 0.0784662732531748 0  0.08714495587406729 0.9303213966261739 0  0.7036417274683815 0.9850594824934642 0  0.6755320268986503 0.9000552383136148 0  0.5860738747831671 0.8809615541428588 0  0.2088643337429009 1.020440832220938 0  0.7325892857142857 0.4885336903971964 0  0.4471147131617949 1.024481429651863 0  0.9313289977941566 0.5146846620677518 0  0.9180219872311914 1.295577203732315 0  0.557548036763429 1.02868260590063 0  0.4451604117585401 0.9081923089371269 0  0.654058422565956 0.7332765200871801 0  0.7006786775708823 1.437898431814794 0  0.8093088642695168 0.6032446443778432 0  0.9237739500172332 0.06517639997702245 0  0.0625 0 0  0.9375 1.5 0  0.916328826652307 0.9241852991743037 0  0.171873989501834 0.8734121241734827 0  0.9285477532453221 0.3329160394873349 0  0.8313221886708546 0.2709216822179099 0  0.739498116874331 0.1471237652498467 0  0.1620375184655173 1.082817874707448 0  0.8242493456480263 0.4235545458621132 0  0.08092324714630188 1.24362538269709 0  0.3937094327312218 1.338112874304002 0  0.4996428508906701 0.7259062340301533 0  0.575 0.35 0  0.65 0.575 0  0.65 0.425 0  0.425 0.35 0  0.575 0.65 0  0.425 0.65 0  0.35 0.575 0  0.2634457364051707 1.421466625293684 0  0.2456683338177991 1.345762439477909 0  0.2639893318360002 0.7433347689534138 0  0.3507285030897302 0.725595745012912 0  0.8125 1.5 0  0.8370966351013709 1.428601215583214 0  0.1159182816951397 0.7690143386662499 0  0.07268341085386848 0.295831542634192 0  0.5632433583437957 0.8093064345680889 0  0.2799069474529262 0.3713889743612331 0  0.06036875067228691 0.609375 0  0.6171745445061244 1.082825455493875 0  0.1649291821849979 0.2622806563448759 0  0.9448573742659629 0.796875 0  0.819878068142786 0.8705255731026844 0  0.1754166553402996 0.9557718819026461 0  0.3125 0 0  0.3456514073649527 0.06854302435898529 0  0.179013816916958 0.6643092150062141 0  0.1685024487938309 0.5393386310926891 0  0.6629601924713451 1.144598607844157 0  0.598818411646755 1.341812641225657 0  0.6280839083339949 1.42659529326364 0  0.8467953663565162 0.9356556797149647 0  0.7209953524450999 0.6452061385343574 0  0.4942305993535075 0.2800767960556972 0  0.3061584457706445 1.082375355492541 0  0.3685543739956368 1.427850231385615 0  0.05227396747452195 0.794166041256576 0  0.3125 1.5 0  0.9496457419399936 0.984375 0  0.04954054144752973 1.359375 0  0.6737459127500345 0.1685001996464485 0  0.06628889425102936 0.1670183213191904 0  0.7179318144233049 0.8459436723546736 0  0.858285790039315 1.160480191818246 0  0.936808362524298 1.155092021473656 0  0.8548602347007285 1.267284087448593 0  0.9334213203093593 1.429572546872906 0  0.7313228343711509 1.340857410425121 0  0.05405463371455387 1.171875 0  0.1503883748403896 1.236950319791893 0  0.463653656573043 0.7940666406854493 0  0.05801660590855892 0.9932572163232567 0  0.09375 0.05838980176088906 0  0.3263950934941324 0.169863961403198 0  0.934725376680476 0.6364845845163584 0  0.0625 1.5 0  0.7156357623587829 0.7798871936803032 0  0.53125 0.05750715454508989 0  0.7289531798358591 0.2120513939389277 0  0.8611293008453803 0.08371275956016357 0  0.7931485975328414 0.7362462304195524 0  0.6632452451477077 1.224524506211694 0  0.6506492327121354 1.022084357310594 0  0.7430305338519925 1.12271278939875 0  0.2972167782079263 0.6125 0  0.08140105122587579 0.3588411210502321 0  0.8413482178663922 1.051986218878298 0  0.8441204858756779 1.329910317324504 0  0.9492429838281583 1.35135714298749 0  0.1714358186485003 0.7995424813790447 0  0.2598323266513226 0.2406306847305864 0  0.9375 0 0  0.6875 1.5 0  0.4375 0 0  0.1875 0 0  0.8125 0 0  0.6875 0 0  0.5625 1.5 0  0.4375 1.5 0  0.1875 1.5 0  0.8576207303520328 0.2120296334907739 0  0.2627640498257702 0.1728052841079521 0  0.1800607144524293 0.1411943334622621 0  0.2542163078251953 1.237640660837701 0  0.7591619624360891 1.242034861729323 0  0.04972001742217615 0.8808474296926768 0  0.3267792715450906 0.9545477668504242 0  0.1531104911380159 0.4140040574183872 0  0.1997848571381072 0.6046315752437972 0  0.2360802435888449 0.5046414722270375 0  0.2872149514161052 0.8461091037879988 0  0.1504082636827923 1.445128669770467 0  0.1851815538777085 1.336174488747262 0  0.4943755093475578 1.367373509401215 0  0.4964151309383568 1.433719520515024 0  0.3029991463633179 0.5375 0  0.6374699876673086 1.289950970400623 0  0.28125 0.05260436823277936 0  0.9412742001334101 0.3930080174094802 0  0.1908821188700928 1.134231497075342 0  0.3861268729108649 0.9064648318748592 0  0.5284333082565327 0.9060792218313511 0  0.8750375567166919 0.4932333314793089 0  0.1477326199654788 0.1909551566321114 0  0.3792612549576647 0.7779443610493932 0  0.9342249539166885 0.1922634780484449 0  1 0.140625 0  0.8302507856821559 0.1496309130576249 0  1 0.890625 0  0.9434043801182344 0.8706060349325631 0  0.3382096980264135 1.210656910306839 0  0.5622796583217582 0.2076725143819285 0  0.4583381614272422 0.1625839506007871 0  0.7721118865761186 0.6737867768191619 0  0.5582040803351463 0.1258007114404073 0  0.3000177205020042 0.6985687306279778 0  0 0.234375 0  0.8826713453770464 0.6600511600481319 0  0.7136112836337428 0.35387960538117 0  0.7959066994371263 0.3737904431053162 0  0.6338891054010829 0.2896157183928816 0  0.3499583098309357 1.006508473320714 0  0.9425268362234692 1.042505681182754 0  0.4461145717627564 0.9649688264828293 0  0.5594284226858414 0.9715936951847909 0  0.3104960594866802 0.3004315453087643 0  0.3670693837847625 0.2821125354429394 0  0.6136294557714667 0.693509645088642 0  0.6116178576521086 0.778892695
[...]
<PointData  Scalars="f_30"> 
<DataArray  type="Float64"  Name="f_30"  format="ascii">5.5000000000000000e+00  1.0000000000000000e+00  2.0000000000000000e+00  6.5000000000000000e+00  1.9675000000000002e+00  2.2675000000000001e+00  1.6675000000000000e+00  1.3674999999999999e+00  4.4691025403784437e+00  4.2400000000000002e+00  3.9891025403784437e+00  3.7818078061834690e+00  3.6699999999999990e+00  3.6818078061834689e+00  3.8158974596215551e+00  4.0400000000000000e+00  4.2958974596215560e+00  4.5131921938165309e+00  4.6300000000000008e+00  4.6131921938165306e+00  1.2500000000000000e+00  2.1250000000000000e+00  3.1250000000000000e+00  5.7500000000000000e+00  1.2812500000000000e+00  2.2812500000000000e+00  3.5312500000000000e+00  4.5312500000000000e+00  3.3183999070484744e+00  2.7373573626861258e+00  6.0625000000000000e+00  5.5625000000000000e+00  1.0625000000000000e+00  1.5625000000000000e+00  2.6947664622045182e+00  4.4453125000000000e+00  5.4453125000000000e+00  1.0703125000000000e+00  2.0703125000000000e+00  2.1645450474274464e+00  1.6328125000000002e+00  4.9781408320259573e+00  4.3126770372177772e+00  1.4727058038473013e+00  1.7119383384930964e+00  1.1240330879709894e+00  1.4949999999999999e+00  1.4184607433287808e+00  1.2085583154583683e+00  2.7578125000000000e+00  2.6328125000000000e+00  3.7578124999999996e+00  4.1256066196514247e+00  2.6203715871714088e+00  2.1232705317051108e+00  3.4735127918546858e+00  2.7526560108758740e+00  3.2510879875473155e+00  5.5156250000000009e+00  1.6225000000000001e+00  1.9225000000000001e+00  2.0950000000000002e+00  1.9597103590717566e+00  4.8608977852929742e+00  6.2656250000000000e+00  5.8906250000000000e+00  3.0160519810303654e+00  2.3699876280835284e+00  3.2155266478505267e+00  1.0156250000000000e+00  1.7656250000000000e+00  3.0510562631311973e+00  2.4338110784163347e+00  1.2375900273583702e+00  1.7480649947608553e+00  4.7562931281882843e+00  5.1752176418280431e+00  3.7615904170536449e+00  4.1269531250000000e+00  3.7662053376671496e+00  5.6406250000000000e+00  1.1406250000000000e+00  1.3906250000000000e+00  3.7796065594453156e+00  1.7066620487074180e+00  4.9407087292860448e+00  2.9139174749172527e+00  4.3651440436144284e+00  2.2750115164615674e+00  3.1094680817740086e+00  2.4112358475317182e+00  5.1188455600199472e+00  1.0175781250000000e+00  1.0427690324738756e+00  4.9550781250000000e+00  5.5687127117732569e+00  2.0175781250000000e+00  1.8375055857496030e+00  2.4394531250000000e+00  1.8923627167781516e+00  2.1980768434019802e+00  1.9517999327546984e+00  5.2264126168962219e+00  1.1077636137583768e+00  1.4889523834297906e+00  1.3248591011996074e+00  1.4750737083567631e+00  1.2480398082496933e+00  1.7340221784886212e+00  1.2765183493506822e+00  5.4933976840177747e+00  4.3055607974774910e+00  4.5174002849307282e+00  2.8613281250000000e+00  2.4768094027093359e+00  1.1134889722651571e+00  1.6534595003947987e+00  1.2207377461936519e+00  1.4394531250000000e+00  1.3641941051240942e+00  1.4837500000000001e+00  2.5587804664095315e+00  3.1159574556017025e+00  1.9803059789411437e+00  1.5592883189610118e+00  2.1940218948436172e+00  3.7519222453912304e+00  3.3814664004442161e+00  3.9707031249999996e+00  1.5432414664289322e+00  1.1582031250000000e+00  2.1582031250000000e+00  4.9707031250000000e+00  1.8613281250000000e+00  2.4238281250000000e+00  3.1269531250000000e+00  3.4238281250000000e+00  5.9550781250000000e+00  4.2060838315145821e+00  3.7005460202706382e+00  2.4036450691934177e+00  1.9502571436050702e+00  2.5498644303559912e+00  2.8357264988617197e+00  2.6966560311986649e+00  3.8678288680960593e+00  4.7715069683742639e+00  1.0525137903618391e+00  4.5743784924637216e+00  5.0066877607580240e+00  1.3385286318331486e+00  1.4724151371351706e+00  2.8989468756559105e+00  3.3844637050611599e+00  1.3383814225359207e+00  1.1875810382374969e+00  1.3164062500000000e+00  1.3646585734063237e+00  2.7385618679046697e+00  3.4361250676735082e+00  3.0766120888351800e+00  2.8957455570493473e+00  3.1265008075519174e+00  2.0139588531096617e+00  3.2992544526412533e+00  2.3974300438321445e+00  5.1998649959468031e+00  3.4270674950995383e+00  2.8475443543427512e+00  2.5031658911803629e+00  5.6258627357929152e+00  2.3831411869304073e+00  1.8618509486487440e+00  1.0039062500000000e+00  6.3789062500000000e+00  3.5481151705606147e+00  2.5550932194461349e+00  2.0840248032044921e+00  1.8378659258189856e+00  1.5902352557339889e+00  3.3711673728710307e+00  2.0381634399958370e+00  4.0996194740387928e+00  4.7357989421796116e+00  2.3034914012790848e+00  1.5756249999999998e+00  2.0837500000000002e+00  1.7837499999999999e+00  1.4256249999999999e+00  2.1756250000000001e+00  2.0256250000000002e+00  1.7837499999999997e+00  5.1106007530430073e+00  4.6823869717744486e+00  2.1747568909998307e+00  2.1758837781895046e+00  6.1601562500000000e+00  5.7824138949805652e+00  2.1961062835981817e+00  1.1805319698134829e+00  2.6272746298753353e+00  1.3538535079735456e+00  1.7466085509315503e+00  3.7257584362556080e+00  1.1647290059339499e+00  3.1629124733800893e+00  3.1880663569537973e+00  2.8578433895261171e+00  1.0976562500000000e+00  1.1288184355344346e+00  1.9150609913415133e+00  1.6099922339549988e+00  4.0593905672118415e+00  4.9592654572989083e+00  5.4647454056489950e+00  3.4680039230090731e+00  2.3522480156901682e+00  1.4010225073281106e+00  3.4366246170129662e+00  5.2132100204548344e+00  2.2642082119688478e+00  5.5976562500000000e+00  3.8400644233183860e+00  4.6984592343976255e+00  1.5104375132816374e+00  1.0602292873083350e+00  2.9467197229337110e+00  4.4299573855652081e+00  4.5462210467848942e+00  4.9427740241772486e+00  5.9586129704745119e+00  5.1307008027107441e+00  3.7492952214387598e+00  4.0824787103982363e+00  2.4759390589604791e+00  2.9766931005935899e+00  1.0159541285537450e+00  1.1641998208622437e+00  2.6839276421944538e+00  5.5039062500000000e+00  2.7284425711247455e+00  1.2890533851159238e+00  1.6214706651476318e+00  1.7553005043764278e+00  2.7130077330399280e+00  4.4385965861013572e+00  3.5126923596654978e+00  4.0731447574157116e+00  1.8386908692802668e+00  1.2641070855592946e+00  3.9214788355060954e+00  5.2500154295149608e+00  5.5536812052822304e+00  2.3080807992974939e+00  1.1833125890527012e+00  1.8789062500000000e+00  5.9726562500000000e+00  1.1914062500000000e+00  1.0351562500000000e+00  1.6601562500000000e+00  1.4726562500000000e+00  5.8164062500000000e+00  5.6914062500000000e+00  5.5351562500000000e+00  1.8254385232998112e+00  1.1287822210744922e+00  1.0724521026521545e+00  4.1280935991727503e+00  4.6619425070295426e+00  2.5542777609886489e+00  2.9290605407723627e+00  1.3663659844790426e+00  1.7711859589860768e+00  1.5650585254865561e+00  2.5142528864469358e+00  5.1994645261662313e+00  4.6051150396028859e+00  4.9837930636095393e+00  5.3572301775046869e+00  1.6698678749216718e+00  4.7341689195817596e+00  1.0845964290575645e+00  2.1952833498663575e+00  3.6094412224457408e+00  2.7927174795887231e+00  2.9213042269880587e+00  2.2522470167762512e+00  1.0948258947374847e+00  2.3541681769759077e+00  1.9464811923066048e+00  2.0395507812500000e+00  1.7342100948316992e+00  3.5864257812499996e+00  3.4062163403553076e+00  4.0457218733856362e+00  1.4025039920593481e+00  1.2628623130238577e+00  2.5042468464691683e+00  1.3435232740326308e+00  2.0661967431576507e+00  1.1098632812500000e+00  2.6504800886219999e+00  1.7596673224386306e+00  1.9133510170260175e+00  1.5696552399724113e+00  3.1484365514604851e+00  4.0621123520953022e+00  3.0613470845213913e+00  3.2009338453526044e+00  1.2770874014581364e+00  1.2940753608839142e+00  2.3385373590109286e+00  2.5875043103609570e+00  2.5690887486994591e+00  2.3160067215061857e+00  1.2290749737368953e+00  1.9589427700843436e+00  1.0043945312500000e+00  5.1650835641958910e+00  2.0248402704393715e+00  5.2036132812500000e+00  5.0012483460565695e+00  5.8258074937216833e+00  1.0268128426859429e+00  1.2311851121726458e+00  1.6435799926528163e+00  2.0559283858687794e+00  2.2222167647201823e+00  1.2915905336025235e+00  1.2481214006584891e+00  1.4500726018169523e+00  1.3559570312500000e+00  3.9024291016835964e+00  3.6739643693752821e+00  2.1098632812500000e+00  1.6136729701769215e+00  3.4255001542241930e+00  1.4745166006293433e+00  4.4403869457242031e+00  1.0865369096542095e+00  1.4441955289918358e+00  1.5206792072836606e+00  1.4211607433422280e+00  5.2427872271836486e+00  3.0247472559172381e+00  3.7227220927597702e+00  1.8395299126555775e+00  1.0287294772595723e+00  4.2986089469079243e+00  4.4084709271421421e+00  4.4015914353735361e+00  4.7848364097151217e+00  1.7146694370862507e+00  4.8954091980790135e+00  1.2153320312500000e+00  2.9329934645445368e+00  1.9243684826660843e+00  2.2360680490119660e+00  3.6282895142648166e+00  1.4833674411459035e+00  2.1731666062983233e+00  1.6145119437885878e+00  3.2821053629866879e+00  2.1216511912118081e+00  1.1569724525443918e+00  5.2690264915066107e+00  4.3615359650999732e+00  2.4799485873256946e+00  3.0749007666640118e+00  4.8420423005317366e+00  5.2404537490351588e+00  2.3265422186025582e+00  2.0837522517059419e+00  4.5772595790280466e+00  2.4144799829774826e+00  3.5313224869234943e+00  2.0954448969911939e+00  2.0141049898125862e+00  1.8412555965395103e+00  1.8503125000000002e+00  1.8832769595689618e+00  1.5694918065249552e+00  3.3247070312500000e+00  3.1955933162818395e+00  3.4886214447415975e+00  1.4507254911944054e+00  1.3201429505771893e+00  1.3371608962353685e+00  2.6036003262534471e+00  1.8778295218581786e+00  5.3668826598788133e+00  3.3619100213895825e+00  4.2036132812500000e+00  1.1249472431969987e+00  1.5317382812500000e+00  2.8855786024482959e+00  4.3247070312500000e+00  3.1431983264723304e+00  5.5291110463886692e+00  2.0043945312500000e+00  2.2081422885884785e+00  5.3849985735357091e+00  2.7630407795153320e+00  1.0395507812500000e+00  2.5409872843692538e+00  5.5110529506426831e+00  1.9887695312500000e+00  3.2273774483791575e+00  2.9670869487790705e+00  1.8216347185328996e+00  2.0208154176368343e+00  1.3971715791032662e+00  1.5634131069906234e+00  1.1760257312480118e+00  2.3373604782936863e+00  1.1883028935536306e+00  3.9348807087376034e+00  4.1460171326905622e+00  4.3726941608036176e+00  3.9819301138309235e+00  6.2231445312500000e+00  1.7144304290780001e+00  2.0618102679535495e+00  5.8318221550185951e+00  3.5256764867993606e+00  2.3559570312500000e+00  2.6789706448819435e+00  1.6776590837381573e+00  1.7228125000000001e+00  3.8657535147099695e+00  2.5630782509098711e+00  2.3532092900606405e+00  2.2526529693120390e+00  1.4044854852801725e+00  3.4672482035187175e+00  3.0406357875390198e+00  1.0065882836288664e+00  5.7082055855133751e+00  3.0025384728285878e+00  2.9887695312500000e+00  2.0188931863636697e+00  1.2292499317390055e+00  5.6958007812500000e+00  2.9379882812500000e+00  3.7465820312500004e+00  4.7465820312500000e+00  4.6958007812500000e+00  3.9379882812500000e+00  2.2700195312500000e+00  3.2700195312500000e+00  1.7426757812500000e+00  2.2153320312500000e+00  2.5317382812500000e+00  2.5864257812500000e+00  2.7426757812500000e+00  5.2231445312500000e+00  5.2795961817432211e+00  5.5639485618940920e+00  2.7846255702264768e+00  2.6169843370948551e+00  3.5142264463137143e+00  4.9931422516282336e+00  2.9004995654248615e+00  1.0450855269197326e+00  1.0587821339937502e+00  2.5000974391526714e+00  1.8134857573615768e+00  2.8332886761792864e+00  2.8581214558369230e+00  1.1721175355068298e+00  6.1221052355042254e+00  3.0678178966606282e+00  2.7853393026046867e+00  4.7899356251007337e+00  3.8737330462844475e+00  4.0737880229697039e+00  3.5263313652697543e+00  3.1979467204029768e+00  4.9821900133729171e+00  4.5529795742811929e+00  4.8637807728059661e+00  1.6554322997113919e+00  3.3081223844358867e+00  1.2982587812003037e+00  3.5888758145499207e+00  5.2176516367884762e+00  3.2498554369533643e+00  3.7216256787760420e+00  1.3951562499999999e+00  1.3528485694012440e+00  3.6316786328322292e+00  2.7540647922341499e+00  2.8647879970159709e+00  4.4598466492712072e+00  4.7140261878775416e+00  4.7773190820330065e+00  1.1669399749692333e+00  1.1878696356198433e+00  5.5321399603199533e+00  2.2214590854720075e+00  4.7608289833738882e+00  3.0942274970259538e+00  1.4355617595468799e+00  1.3031649185165963e+00  1.2810434530625685e+00  1.4018126294111475e+00  1.6578575178893411e+00  3.2691572790225596e+00  4.6985388067884797e+00  2.7130501198672512e+00  5.2406592244458476e+00  1.2487019176278700e+00  1.6353059571493902e+00  1.7957359935799908e+00  2.4038743472425974e+00  1.3907811624627389e+00  1.4708214746164785e+00  2.1198180006608269e+00  4.3435673575288050e+00  4.2182773373730598e+00  2.1452242439338089e+00  1.9527451297806078e+00  1.0779564782057858e+00  2.3638081614459323e+00  2.4033320972045074e+00  3.5777800654991045e+00  5.3619870581877391e+00  5.6662695238929395e+00  3.2853412785099119e+00  2.7038777243067171e+00  1.0665379894220606e+00  4.1840203361037567e+00  3.6986616950927238e+00  3.9593231109427243e+00  4.0875318760624619e+00  1.5225806624334375e+00  1.7902123410676103e+00  2.3322103988483982e+00  1.3888816663762216e+00  1.3687008919691603e+00  1.5435343991811823e+00  3.1724251442546021e+00  3.1094979106820095e+00  3.3177514674449946e+00  4.2191981237513456e+00  3.4773248799432426e+00  4.5318335646042627e+00  5.4023474188326590e+00  4.9725731221863425e+00  2.5130427084847042e+00  2.7004447025853260e+00  1.9742784517699961e+00  1.8784829496872095e+00  4.6028646437103378e+00  1.9388956627280485e+00  2.0951268413026707e+00  4.9307163922811883e+00  2.8281670076338910e+00  3.5958890112766069e+00  4.1456055055831857e+00  2.1812479180038351e+00  2.0247854255026754e+00  3.2026790313597231e+00  4.8349684016025050e+00  5.6181640625000000e+00  1.6191077686957613e+00  2.4848010679541037e+00  4.9627446543158387e+00  5.1654679413922384e+00  1.0908159801235973e+00  3.6071591141357908e+00  1.8472897107454331e+00  1.9374888515262099e+00  1.9180163857740495e+00  4.2649270519563034e+00  5.0391827108900280e+00  6.2119140625000000e+00  6.0085548970689029e+00  4.5136898062439323e+00  3.0067121187642676e+00  3.6259843556095688e+00  3.8429319534378066e+00  1.3446499373889087e+00  1.5519962966027829e+00  1.4228125000000000e+00  1.8518389849981776e+00  3.6169786551591652e+00  1.5289687505158560e+00  2.9303465151833517e+00  2.9645425697209182e+00  5.7163818462845821e+00  1.8076856000564603e+00  1.0986390574362972e+00  5.0305571322106246e+00  1.4994528239324889e+00  1.1867036761953016e+00  6.0166015625000000e+00  5.4066483313771574e+00  1.2048551680107211e+00  3.3477710644069512e+00  1.8979968982540480e+00  2.6447645663692922e+00  2.5691857829008069e+00  2.4704512245814794e+00  2.0189183559336890e+00  3.9559337784840913e+00  2.7315032001382518e+00  1.5503125000000000e+00  4.5552413487274706e+00  1.7655659776036918e+00  1.8931253403429902e+00  1.8971762837891135e+00  3.8708342394559332e+00  2.3059855716608668e+00  3.8819897067206446e+00  1.2249569118046704e+00  2.1437724869777330e+00  2.0590413660598381e+00  4.5792780447803478e+00  2.4482521844652516e+00  2.4643932959718291e+00  2.6734702546699580e+00  1.3858993562635247e+00  6.4384765625000000e+00  6.1935535217323876e+00  3.3515872452591298e+00  1.0411263935019657e+00  4.7754167385397661e+00  4.4944765179734549e+00  1.9835697180916412e+00  2.2811851859466237e+00  1.0275648053169013e+00  1.2966201066804659e+00  1.6490668300738740e+00  2.3902586226702276e+00  2.0940619117059471e+00  1.9687363213531284e+00  1.9558261375685895e+00  3.9740677926237384e+00  3.9095857885726124e+00  2.1290651292801468e+00  2.0936279714238193e+00  3.3548695447667929e+00  1.6803716927674457e+00  1.3283541093196232e+00  2.8291960200646677e+00  2.3007723907970443e+00  4.8313647764367209e+00  5.3942972462086578e+00  2.8869528364511394e+00  1.1045103495418587e+00  2.4028986624118418e+00  2.7943094493219256e+00  2.1960900935797856e+00  2.3441668164698410e+00  4.1231626981401748e+00  1.3798335851805399e+00  2.2221369759811007e+00  2.0734518679237990e+00  5.6533379825883632e+00  5.9552954931586735e+00  3.6520857578614709e+00  1.5263312382076093e+00  1.7428712690379473e+00  2.4948524059316139e+00  2.6519047059095797e+00  3.3950753914266323e+00  2.2201562500000001e+00  1.8728125000000004e+00  2.1728125000000000e+00  1.6201562500000000e+00  1.9951562500000000e+00  2.0589062500000002e+00  1.4589062499999998e+00  1.5339062499999998e+00  2.1339062499999999e+00  2.0003125000000002e+00  1.7003124999999999e+00  2.3685105956689250e+00  2.5670864656401702e+00  3.2150440709730495e+00  3.0471135968544778e+00  3.2200952969447525e+00  5.7660860963400795e+00  1.4707309241473008e+00  3.9405506538762758e+00  2.5745336574628759e+00  1.1555128575521167e+00  1.1286217326478689e+00  1.1249196287538614e+00  1.6339324955849948e+00  5.3266473918942667e+00  2.4276465507500959e+00  1.7709242446488449e+00  1.6916569813400650e+00  4.7028904835327925e+00  4.9837260071124838e+00  1.4737026299205997e+00  2.2817527281782519e+00  1.2203606945974057e+00  1.1465175919836377e+00  5.5009765625000000e+00  3.9521000054965389e+00  3.8142015770429873e+00  3.6811807537744183e+00  3.3146388891164369e+00  1.4871426482434951e+00  1.2471255783567885e+00  5.2846393606437312e+00  5.6692055762759308e+00  1.9285781696338087e+00  5.0568842330883150e+00  2.3128068269139916e+00  1.3242702082397828e+00  1.8016034535368632e+00  1.1261165696776374e+00  2.6021571448183125e+00  1.3728566622498082e+00  2.8559211355567480e+00  1.2235761007004160e+00  4.3405741363788790e+00  1.2013668260743673e+00  1.1490998404640853e+00  3.5987407485538103e+00  3.3963232597087210e+00  2.1046905394670170e+00  1.6361280163520231e+00  1.7671075105685674e+00  1.0635230478209066e+00  2.6707525195875537e+00  3.0653113194153718e+00  4.6254348282904081e+00  5.0176808469187453e+00  1.7001552554916812e+00  3.7359083223991574e+00  3.1422522006062459e+00  4.0698481555455510e+00  4.2476698523055694e+00  2.0186350070306376e+00  3.9027533041771831e+00  2.7544059091885407e+00  4.4201084158396506e+00  3.6272414873260792e+00  3.0291635573707101e+00  2.8065645104957677e+00  5.4459828311512881e+00  2.4613730769365532e+00  1.8749777056996966e+00  4.2738392186334391e+00  3.2661360837434050e+00  2.1329646135914988e+00  1.4971737454927287e+00  3.4082413229022488e+00  1.3037773774174051e+00  1.0549282370739173e+00  2.2807634520536406e+00  2.4502073978575480e+00  2.2887470265417678e+00  5.0522716203671862e+00  5.8149937482930865e+00  2.1924083814554085e+00  2.2426168683625329e+00  2.2714645629412336e+00  5.8525390625000000e+00  3.1621744446091555e+00  2.7449231118498512e+00  6.0308252544922762e+00  1.5356426331681921e+00  3.4985072434177726e+00  3.3249923134629937e+00  2.5123491950890471e+00  4.6301113205570985e+00  1.5698016391714709e+00  1.5641486204973383e+00  1.9040947176977647e+00  1.3624013965366428e+00  1.4387525384111588e+00  5.1885615261074696e+00  1.3390215145856819e+00  2.2643884066320195e+00  4.5836996269852630e+00  3.5898289023032004e+00  3.4544360481349967e+00  3.4329473008026992e+00  1.7978076904210585e+00  4.2233391367831050e+00  1.9990411596080069e+00  1.0969679282577609e+00  1.4122557264868376e+00  4.7889303229143598e+00  1.0461082233087202e+00  3.0520963872137910e+00  3.0321265082867410e+00  1.8911617943769070e+00  1.1973234159295660e+00  4.9529967317818864e+00  3.4680793634915545e+00  4.8803057852730909e+00  1.1317896865997201e+00  1.1899231955505696e+00  2.7384887010845769e+00  2.8769917270285967e+00  2.7821785088682969e+00  1.7105888860248808e+00  4.0002219864905637e+00  2.9468374069406869e+00  3.0275510813789985e+00  2.7284027340479202e+00  3.6386805695587610e+00  1.3232381940398537e+00  1.2422280113688318e+00  2.1973399073455671e+00  1.4306640625000000e+00  2.5700459296953619e+00  5.1799653840214095e+00  2.4671305688741665e+00  1.1415137854187449e+00  2.9711493627353338e+00  4.8250893265848855e+00  4.5701928654894637e+00  4.5928164622632783e+00  2.7512303115271939e+00  4.2327364540155541e+00  1.2197265625000000e+00  1.7617699839659560e+00  2.0405132105836099e+00  1.0139195543800554e+00  1.1523541904229597e+00  5.4457071499707768e+00  2.9359462639199658e