<?xml version="1.0"?>
<VTKFile type="UnstructuredGrid"  version="0.1"  >
<UnstructuredGrid>
<Piece  NumberOfPoints="1442" NumberOfCells="2689">
<Points>
<DataArray  type="Float64"  NumberOfComponents="3"  format="ascii">0 1.5 0  0 0 0  1 0 0  1 1.5 0  0.35 0.65 0  0.65 0.65 0  0.65 0.35 0  0.35 0.35 0  0.5866025403784438 1.25 0  0.6 1.2 0  0.5866025403784438 1.15 0  0.55 1.113397459621556 0  0.5 1.1 0  0.45 1.113397459621556 0  0.4133974596215561 1.15 0  0.4 1.2 0  0.4133974596215561 1.25 0  0.45 1.286602540378444 0  0.5 1.3 0  0.55 1.286602540378444 0  0.5 0 0  0 0.75 0  1 0.75 0  0.5 1.5 0  0 0.375 0  1 0.375 0  0 1.125 0  1 1.125 0  0.7720072424407859 0.9279927575592141 0  0.2369660147341462 0.9168810515695116 0  0.75 1.5 0  0.25 1.5 0  0.25 0 0  0.75 0 0  0.5 0.85 0  0 1.3125 0  1 1.3125 0  0 0.1875 0  1 0.1875 0  0.8151785714285714 0.5 0  0 0.5625 0  0.7912795060263956 1.294622674701861 0  0.2063122081232003 1.278693406660268 0  0.1825892857142857 0.46875 0  0.7939338235294118 0.2018382352941176 0  0.2060661764705882 0.2018382352941177 0  0.5 0.35 0  0.6048949210808516 0.1621878909653493 0  0.3951050789191484 0.1621878909653493 0  0 0.9375 0  1 0.5625 0  1 0.9375 0  0.8141972910020407 1.109596487353587 0  0.8300504758824617 0.6823233344113842 0  0.1858106595831645 0.7378373085410758 0  0.238295786310014 1.099198431588796 0  0.6580075260652187 0.8122556445489141 0  0.6163841821541198 0.967266913317176 0  0.125 1.5 0  0.35 0.5 0  0.65 0.5 0  0.5 0.65 0  0.8469874054402771 0.3478957913091444 0  0.3245383322568082 1.370320036919204 0  0.875 1.5 0  0.625 1.5 0  0.3893319639748608 0.9654366071334702 0  0.3223346093442226 0.7956602451451316 0  0.889714748531926 0.84375 0  0.125 0 0  0.875 0 0  0.1255889869382551 1.008856943713003 0  0.09944003484435231 0.84375 0  0.1382805521602539 0.3303643480715599 0  0.1366004694630674 0.6038634908658245 0  0.8990783052805509 1.214042471714644 0  0.668658096406439 1.365345830213541 0  0.1256028235987354 1.171715077169584 0  1 1.03125 0  0.8771001575862699 0.9992802925544542 0  0.375 1.5 0  0.375 0 0  0.625 0 0  0.6903369446057199 1.073113088240991 0  0.2508055501622219 0.5673522822942192 0  0.1875 1.397372561873074 0  0.7763483628448028 0.8097040473126911 0  0.7228926390269661 1.192219694772317 0  0.425 0.7397022019570473 0  0.502880832992453 0.9635283571381553 0  0.575 0.7350267602343212 0  0.4360607236286478 1.401581848014667 0  0 0.09375 0  0.117501592172302 0.120210456229736 0  0 1.40625 0  0.8895805301329724 1.374303686755315 0  1 0.09375 0  0.8932064825261059 0.140625 0  1 0.46875 0  0.7491117359292689 0.4068056351799293 0  0.7325892857142857 0.575 0  0.9077195128926427 0.2526498093370785 0  0.5535898384862248 1.4 0  0.2862335767983502 0.1135875300027696 0  0.6875 0.09008767814013303 0  0.425 0.2686897619023091 0  0.575 0.2686897619023091 0  0.2473344065696833 0.3057417823420628 0  0.7453015779946386 0.2985879063046734 0  0.5 0.1150143090901798 0  0.7685591996099543 1.396893159654718 0  0.3101877663965869 1.26674953462598 0  0.1077951867849426 1.323907731025259 0  1 0.65625 0  0.8891650081440881 0.5857332208147272 0  0.1007677805315621 0.2272256552865915 0  0.7968715917092577 0.09549815361541228 0  0.3261120109539702 0.2390008113368489 0  0 0.46875 0  0.09140542126065337 0.4216592458712581 0  0.35 0.425 0  0.7311434567761511 0.7156357995802678 0  0.2919618505553527 1.007643466945126 0  0.08983837159042833 0.6970644256489388 0  0.6682645595483953 0.237422322813065 0  0.8998020018038841 0.4383187780156251 0  0.3181107827910294 1.151262931136927 0  0.3720333480364825 1.058947728854826 0  0 1.21875 0  0.1003609880062736 0.5161452023746008 0  0 0.28125 0  1 0.28125 0  1 1.21875 0  0 0.65625 0  0 0.84375 0  0 1.03125 0  1 0.84375 0  1 1.40625 0  0.9093009528131841 1.090733220877184 0  0.7860227258733221 1.02043933632054 0  0.2307441467224153 0.8218289487513623 0  0.2528411345438668 0.6657600013847179 0  0.4084926922343957 0.8315748448273622 0  0.9202166509295927 0.703125 0  0.3291025750926692 0.8910969320761761 0  0.2156003274906323 1.187751415797996 0  0.7014659962158134 1.28056544327123 0  0.2003567957464576 0.07840869841509678 0  0.8104055170896122 1.207813336544415 0  0.09876309307291065 1.413676816133377 0  0.2077866146074518 0.3843959659369329 0  0.2665605884847265 0.4478926490851416 0  0.8511945383881471 0.7662478318744792 0  0.08439847728796501 1.090289510633832 0  0.5 0.2101535921113944 0  0.4197556514239601 0.07679209038960186 0  0.5625 0 0  0.59375 0.0784662732531748 0  0.08714495587406729 0.9303213966261739 0  0.7036417274683815 0.9850594824934642 0  0.6755320268986503 0.9000552383136148 0  0.5860738747831671 0.8809615541428588 0  0.2088643337429009 1.020440832220938 0  0.7325892857142857 0.4885336903971964 0  0.4471147131617949 1.024481429651863 0  0.9313289977941566 0.5146846620677518 0  0.9180219872311914 1.295577203732315 0  0.557548036763429 1.02868260590063 0  0.4451604117585401 0.9081923089371269 0  0.654058422565956 0.7332765200871801 0  0.7006786775708823 1.437898431814794 0  0.8093088642695168 0.6032446443778432 0  0.9237739500172332 0.06517639997702245 0  0.0625 0 0  0.9375 1.5 0  0.916328826652307 0.9241852991743037 0  0.171873989501834 0.8734121241734827 0  0.9285477532453221 0.3329160394873349 0  0.8313221886708546 0.2709216822179099 0  0.739498116874331 0.1471237652498467 0  0.1620375184655173 1.082817874707448 0  0.8242493456480263 0.4235545458621132 0  0.08092324714630188 1.24362538269709 0  0.3937094327312218 1.338112874304002 0  0.4996428508906701 0.7259062340301533 0  0.575 0.35 0  0.65 0.575 0  0.65 0.425 0  0.425 0.35 0  0.575 0.65 0  0.425 0.65 0  0.35 0.575 0  0.2634457364051707 1.421466625293684 0  0.2456683338177991 1.345762439477909 0  0.2639893318360002 0.7433347689534138 0  0.3507285030897302 0.725595745012912 0  0.8125 1.5 0  0.8370966351013709 1.428601215583214 0  0.1159182816951397 0.7690143386662499 0  0.07268341085386848 0.295831542634192 0  0.5632433583437957 0.8093064345680889 0  0.2799069474529262 0.3713889743612331 0  0.06036875067228691 0.609375 0  0.6171745445061244 1.082825455493875 0  0.1649291821849979 0.2622806563448759 0  0.9448573742659629 0.796875 0  0.819878068142786 0.8705255731026844 0  0.1754166553402996 0.9557718819026461 0  0.3125 0 0  0.3456514073649527 0.06854302435898529 0  0.179013816916958 0.6643092150062141 0  0.1685024487938309 0.5393386310926891 0  0.6629601924713451 1.144598607844157 0  0.598818411646755 1.341812641225657 0  0.6280839083339949 1.42659529326364 0  0.8467953663565162 0.9356556797149647 0  0.7209953524450999 0.6452061385343574 0  0.4942305993535075 0.2800767960556972 0  0.3061584457706445 1.082375355492541 0  0.3685543739956368 1.427850231385615 0  0.05227396747452195 0.794166041256576 0  0.3125 1.5 0  0.9496457419399936 0.984375 0  0.04954054144752973 1.359375 0  0.6737459127500345 0.1685001996464485 0  0.06628889425102936 0.1670183213191904 0  0.7179318144233049 0.8459436723546736 0  0.858285790039315 1.160480191818246 0  0.936808362524298 1.155092021473656 0  0.8548602347007285 1.267284087448593 0  0.9334213203093593 1.429572546872906 0  0.7313228343711509 1.340857410425121 0  0.05405463371455387 1.171875 0  0.1503883748403896 1.236950319791893 0  0.463653656573043 0.7940666406854493 0  0.05801660590855892 0.9932572163232567 0  0.09375 0.05838980176088906 0  0.3263950934941324 0.169863961403198 0  0.934725376680476 0.6364845845163584 0  0.0625 1.5 0  0.7156357623587829 0.7798871936803032 0  0.53125 0.05750715454508989 0  0.7289531798358591 0.2120513939389277 0  0.8611293008453803 0.08371275956016357 0  0.7931485975328414 0.7362462304195524 0  0.6632452451477077 1.224524506211694 0  0.6506492327121354 1.022084357310594 0  0.7430305338519925 1.12271278939875 0  0.2972167782079263 0.6125 0  0.08140105122587579 0.3588411210502321 0  0.8413482178663922 1.051986218878298 0  0.8441204858756779 1.329910317324504 0  0.9492429838281583 1.35135714298749 0  0.1714358186485003 0.7995424813790447 0  0.2598323266513226 0.2406306847305864 0  0.9375 0 0  0.6875 1.5 0  0.4375 0 0  0.1875 0 0  0.8125 0 0  0.6875 0 0  0.5625 1.5 0  0.4375 1.5 0  0.1875 1.5 0  0.8576207303520328 0.2120296334907739 0  0.2627640498257702 0.1728052841079521 0  0.1800607144524293 0.1411943334622621 0  0.2542163078251953 1.237640660837701 0  0.7591619624360891 1.242034861729323 0  0.04972001742217615 0.8808474296926768 0  0.3267792715450906 0.9545477668504242 0  0.1531104911380159 0.4140040574183872 0  0.1997848571381072 0.6046315752437972 0  0.2360802435888449 0.5046414722270375 0  0.2872149514161052 0.8461091037879988 0  0.1504082636827923 1.445128669770467 0  0.1851815538777085 1.336174488747262 0  0.4943755093475578 1.367373509401215 0  0.4964151309383568 1.433719520515024 0  0.3029991463633179 0.5375 0  0.6374699876673086 1.289950970400623 0  0.28125 0.05260436823277936 0  0.9412742001334101 0.3930080174094802 0  0.1908821188700928 1.134231497075342 0  0.3861268729108649 0.9064648318748592 0  0.5284333082565327 0.9060792218313511 0  0.8750375567166919 0.4932333314793089 0  0.1477326199654788 0.1909551566321114 0  0.3792612549576647 0.7779443610493932 0  0.9342249539166885 0.1922634780484449 0  1 0.140625 0  0.8302507856821559 0.1496309130576249 0  1 0.890625 0  0.9434043801182344 0.8706060349325631 0  0.3382096980264135 1.210656910306839 0  0.5622796583217582 0.2076725143819285 0  0.4583381614272422 0.1625839506007871 0  0.7721118865761186 0.6737867768191619 0  0.5582040803351463 0.1258007114404073 0  0.3000177205020042 0.6985687306279778 0  0 0.234375 0  0.8826713453770464 0.6600511600481319 0  0.7136112836337428 0.35387960538117 0  0.7959066994371263 0.3737904431053162 0  0.6338891054010829 0.2896157183928816 0  0.3499583098309357 1.006508473320714 0  0.9425268362234692 1.042505681182754 0  0.4461145717627564 0.9649688264828293 0  0.5594284226858414 0.9715936951847909 0  0.3104960594866802 0.3004315453087643 0  0.3670693837847625 0.2821125354429394 0  0.6136294557714667 0.693509645088642 0  0.6116178576521086 0.778892695
[...]
<PointData  Scalars="f_84"> 
<DataArray  type="Float64"  Name="f_84"  format="ascii">0.0000000000000000e+00  0.0000000000000000e+00  0.0000000000000000e+00  0.0000000000000000e+00  0.0000000000000000e+00  0.0000000000000000e+00  0.0000000000000000e+00  0.0000000000000000e+00  1.0000000000000000e+00  1.0000000000000000e+00  1.0000000000000000e+00  1.0000000000000000e+00  1.0000000000000000e+00  1.0000000000000000e+00  1.0000000000000000e+00  1.0000000000000000e+00  1.0000000000000000e+00  1.0000000000000000e+00  1.0000000000000000e+00  1.0000000000000000e+00  0.0000000000000000e+00  0.0000000000000000e+00  0.0000000000000000e+00  0.0000000000000000e+00  0.0000000000000000e+00  0.0000000000000000e+00  0.0000000000000000e+00  0.0000000000000000e+00  2.3237342036717040e-01  2.3176359755493353e-01  0.0000000000000000e+00  0.0000000000000000e+00  0.0000000000000000e+00  0.0000000000000000e+00  2.8393596171138269e-01  0.0000000000000000e+00  0.0000000000000000e+00  0.0000000000000000e+00  0.0000000000000000e+00  1.1616431927630613e-02  0.0000000000000000e+00  2.7130240169575948e-01  2.8145163213702129e-01  8.6350963845776701e-03  9.2087067516017794e-04  9.1332389408236550e-04  0.0000000000000000e+00  3.4539655971270667e-04  3.4035125791424147e-04  0.0000000000000000e+00  0.0000000000000000e+00  0.0000000000000000e+00  2.8221213863527489e-01  5.0500817566234472e-02  7.8070741019239887e-02  3.7750893021533777e-01  1.9319177705467760e-01  4.4880882110593251e-01  0.0000000000000000e+00  0.0000000000000000e+00  0.0000000000000000e+00  0.0000000000000000e+00  2.9487060097520817e-03  3.4096109822833032e-01  0.0000000000000000e+00  0.0000000000000000e+00  4.5074282297227708e-01  1.6717591038698587e-01  8.2263938757737326e-02  0.0000000000000000e+00  0.0000000000000000e+00  1.5705519252628308e-01  7.4252084053452433e-02  2.3991149113788144e-03  2.4012393632084354e-02  1.4032950957329263e-01  3.6574355912158474e-01  1.8388847625505653e-01  0.0000000000000000e+00  1.5037499430340129e-01  0.0000000000000000e+00  0.0000000000000000e+00  0.0000000000000000e+00  5.0805381969204400e-01  1.8709748337792768e-02  1.3111531714422314e-01  1.3716937492138609e-01  4.9275507042291433e-01  1.1793723559781751e-01  5.0383663112558608e-01  1.1187679318625300e-01  3.7752240649285423e-01  0.0000000000000000e+00  3.4929418314104133e-04  0.0000000000000000e+00  8.6548179817832180e-02  0.0000000000000000e+00  4.0496116346618873e-04  0.0000000000000000e+00  4.1011073202876806e-03  1.8760758749387055e-02  9.6376404687771762e-04  3.9111012803188722e-01  3.7800050093878495e-04  2.7763898901225878e-04  2.8287145070483838e-04  2.8399032493653083e-04  1.7983634582939873e-03  1.6647665729092099e-03  2.0035931551546363e-04  1.7149997018247928e-01  5.2765986033888368e-01  1.1197424468210190e-01  0.0000000000000000e+00  1.7907203281666454e-02  8.2501327294290199e-04  3.4517263227326340e-04  7.0758486839182083e-04  0.0000000000000000e+00  3.9934918292726489e-03  0.0000000000000000e+00  8.3234366064214277e-02  3.9279076151231501e-01  3.2054367537148173e-02  6.8231875586321675e-04  4.9984002488989232e-03  6.0619918747126000e-01  6.1911976400165580e-01  0.0000000000000000e+00  9.5344407606770456e-03  0.0000000000000000e+00  0.0000000000000000e+00  0.0000000000000000e+00  0.0000000000000000e+00  0.0000000000000000e+00  0.0000000000000000e+00  0.0000000000000000e+00  0.0000000000000000e+00  1.2699805179349294e-01  2.8586148384251076e-01  1.5012709121284373e-01  5.1994498047982403e-02  2.4087517315995624e-01  2.9669660442961408e-02  2.8381412760662839e-01  3.4592034291666351e-01  4.7603717830998915e-01  2.7500803086332701e-04  2.8939222005379939e-01  5.4468699253787056e-02  4.0044106475722700e-03  5.2129888080793821e-03  7.6066417792307744e-02  1.1793365570348928e-01  2.6202986347020907e-04  1.6309465903529066e-04  0.0000000000000000e+00  1.7418144609431565e-04  8.8309744414220195e-02  3.7128852450275218e-01  2.9197855022797453e-01  3.1806197503232936e-01  2.7822074941603925e-01  7.7067593979231195e-03  6.4728338313638045e-01  6.8230392290828988e-03  9.3826705400331639e-02  6.5521066809021211e-01  3.7722327662140759e-01  1.0461193256033829e-01  1.4755088449088916e-01  2.8962534664431175e-02  1.2297495903645421e-04  0.0000000000000000e+00  0.0000000000000000e+00  8.3275294931497518e-02  1.4314620497572264e-01  1.5526640074023108e-03  1.5880616849350058e-03  5.5037330576226755e-04  2.3442449466598514e-01  5.8549073029206264e-03  1.0613739649824525e-01  5.7031626299028015e-01  1.0190427033975925e-01  0.0000000000000000e+00  0.0000000000000000e+00  0.0000000000000000e+00  0.0000000000000000e+00  0.0000000000000000e+00  0.0000000000000000e+00  0.0000000000000000e+00  1.5653857993531006e-01  2.6819691618678299e-01  1.0295110552753478e-01  9.5880856864707764e-02  0.0000000000000000e+00  7.8236938162510677e-02  6.1153381889236483e-02  1.1389694382165781e-03  2.1486527762810229e-01  2.3127217253465530e-03  1.2398175259362805e-02  6.9907069761120433e-01  1.4620409539438290e-03  3.3761112037078572e-02  1.4836167707717859e-01  1.9419048027596525e-01  0.0000000000000000e+00  1.8653900994972800e-04  4.5610653412142141e-02  1.5905739795282137e-02  6.6408218611614556e-01  5.7386166911041980e-01  2.3221250882549888e-01  1.5928258848375423e-01  3.8716179917126177e-02  1.8380465798946571e-04  5.1067078877392258e-01  2.2540023181921692e-01  3.1734151086626208e-02  0.0000000000000000e+00  5.8513415605060883e-02  4.1621334016762844e-02  5.0603179107982447e-04  3.4424918998724710e-04  2.0145879093164804e-01  2.1114909021782963e-01  8.9797529330237769e-02  1.8945619295356236e-01  2.9577164005298126e-02  3.1315428780577159e-01  7.6339295764932869e-02  2.1047967824733210e-01  1.9590400177576722e-01  6.8896767262047520e-02  1.2893640916588394e-04  5.0498174568293071e-04  1.6151894979775993e-02  0.0000000000000000e+00  1.3943443735756128e-01  1.1119846906882102e-04  8.5807071378769958e-04  2.5651949874469650e-04  8.3551859453672273e-02  6.6987153476029970e-01  5.0593555638259369e-01  4.2903917256583668e-01  2.1196414644072289e-02  2.1207305326389381e-03  2.1882281994482569e-01  1.6474155456569101e-01  4.4606800060682954e-02  1.0304588973822527e-01  1.0743167556229000e-03  0.0000000000000000e+00  0.0000000000000000e+00  0.0000000000000000e+00  0.0000000000000000e+00  0.0000000000000000e+00  0.0000000000000000e+00  0.0000000000000000e+00  0.0000000000000000e+00  0.0000000000000000e+00  9.1748919063492718e-04  6.6155080723538434e-04  5.3563934590954013e-04  4.1203361513739706e-01  3.7867908102181297e-01  4.2871482897231299e-02  3.6806582167050167e-01  5.1740140928965162e-03  2.9400618640472539e-02  1.0889811403994726e-02  2.0424479940697582e-01  5.4898746529090874e-02  1.9573923662202386e-01  5.6664272005514893e-01  2.6403819792695532e-01  7.8273150124297201e-03  6.4418753061038037e-01  1.7072893978109909e-04  2.1757532863596555e-03  2.9669766470923170e-01  3.4525790254019612e-01  3.8022980686091551e-01  9.2497731187804605e-03  7.7124061627436538e-04  1.6170348774424376e-01  4.3466389374298702e-04  0.0000000000000000e+00  5.7785779949092190e-04  0.0000000000000000e+00  4.7065844427885445e-02  6.8617282520720235e-01  3.0929592552205739e-04  2.6650195905673321e-04  5.5341420293463436e-02  2.3626999618138922e-04  7.0032984560819009e-02  0.0000000000000000e+00  3.2315979744536739e-02  1.8853593087792377e-03  3.7138076580308789e-03  4.6658640388229746e-04  4.7932876590315698e-01  7.4935513088087241e-02  4.9267871001090791e-01  5.0475411953618610e-01  1.0052905004456190e-03  4.7116137187811023e-04  5.7079730719851271e-02  1.6465267745192086e-01  8.9468430891925643e-03  1.5806273201862810e-02  1.0012215819505466e-04  1.7630461166654023e-03  0.0000000000000000e+00  1.7033144461149560e-02  7.4709927152381457e-03  0.0000000000000000e+00  6.9002951580188598e-02  7.6085486054262894e-02  1.6951852678853999e-04  2.2124881614372111e-03  9.9065763508698716e-04  7.1442862919605327e-03  1.7991067251399741e-02  2.9623746013470158e-04  4.2798520756638886e-04  4.2145650342593531e-03  0.0000000000000000e+00  3.4643552365276553e-01  3.8537383968257305e-01  0.0000000000000000e+00  7.5608140344010522e-03  7.3524836172226615e-01  4.3936880968578797e-04  6.6890619312888933e-01  4.7282555749039728e-04  3.2282151037471861e-04  1.4769180390501811e-04  1.4211057475615527e-04  7.8260227892770956e-02  1.1075391785185945e-01  4.4876880974336475e-01  2.3304350507609051e-03  1.3940254820532180e-04  3.4421684149670984e-01  3.6892294519703195e-01  6.1079709665676524e-02  1.1113271397091250e-01  1.2796961803398547e-03  6.7764926901095091e-01  0.0000000000000000e+00  2.6558820811007505e-01  1.7685870429680800e-04  5.0754981802752321e-02  7.2014842734415174e-01  1.2232879045103164e-04  5.9607517566529170e-02  1.5232207916861796e-04  3.9108753978211053e-01  5.8779089139276541e-02  3.2013455882933960e-04  1.4194312676811546e-01  1.8638266783409169e-01  1.7486705895032753e-01  1.8192324494836698e-01  6.1737269000549200e-01  2.2561498417905926e-01  3.5526843944737679e-03  3.4537638845378396e-03  4.6810894810391257e-01  5.8192490934857601e-02  2.2612334463849082e-01  2.4801109413130757e-02  5.1210205293568699e-02  2.5347531914032610e-02  0.0000000000000000e+00  3.4092685832072924e-03  3.2852052789257140e-04  0.0000000000000000e+00  6.7954021464446568e-02  2.9719898684140228e-01  7.3858223409244122e-03  1.7677874570692605e-03  2.6161154118956628e-04  1.0934226442552945e-01  1.5143993799100168e-02  2.4658091314197797e-01  1.1229252961510597e-01  0.0000000000000000e+00  5.4864154365457578e-04  0.0000000000000000e+00  3.0559570395965702e-01  0.0000000000000000e+00  2.4581612098771824e-01  1.8803187008548347e-01  0.0000000000000000e+00  1.6036176814568349e-02  1.7521238942302386e-01  2.3852747821856746e-01  0.0000000000000000e+00  2.3376764030034955e-01  1.2572325134322002e-01  0.0000000000000000e+00  5.7109138614617150e-01  4.7044940409296139e-02  3.1558352381432127e-02  6.5712358652696770e-02  1.3314173232006874e-04  4.8532907625953086e-03  1.5189552306342847e-03  3.2147085963909160e-02  1.4920074950860950e-03  5.2762793738311986e-01  2.0091352405298271e-01  6.4439648185570117e-02  1.4073345125703737e-01  0.0000000000000000e+00  1.1833867884981671e-04  7.6845673648513984e-04  5.7046772376418343e-02  1.8463986578661334e-01  0.0000000000000000e+00  2.5011037910745332e-01  1.5029549780998295e-02  0.0000000000000000e+00  7.8221659137771593e-01  1.8003639247083841e-01  1.5291830466779105e-01  1.1031685143097635e-01  2.5170401284646088e-04  7.5333667071326127e-01  4.0319145798706191e-01  5.4785704488174792e-05  1.0801214338695544e-01  2.2248899837990849e-02  0.0000000000000000e+00  4.6895155400133938e-04  2.1222678241832364e-04  0.0000000000000000e+00  0.0000000000000000e+00  0.0000000000000000e+00  0.0000000000000000e+00  0.0000000000000000e+00  0.0000000000000000e+00  0.0000000000000000e+00  0.0000000000000000e+00  0.0000000000000000e+00  0.0000000000000000e+00  0.0000000000000000e+00  0.0000000000000000e+00  0.0000000000000000e+00  0.0000000000000000e+00  2.2547888145242251e-02  1.4373172879898632e-01  5.0925731352185082e-02  2.6371581899312790e-01  6.1209553316322074e-01  3.9009868453173829e-01  2.5559675663251408e-01  3.3299236139091085e-04  1.5443585775008628e-04  2.8630016773596164e-02  2.5638589790877254e-03  1.3499534936260027e-02  1.3994226862806575e-01  7.5096250809222550e-04  2.0329535169600881e-02  3.5206382000585751e-01  3.0093850627331548e-01  6.0290550001739308e-02  2.5390399062054397e-01  2.9616977436899816e-01  6.8768950096913264e-02  1.3029129595216571e-01  4.2524208086039977e-01  5.1309485558528822e-01  3.6433053123233117e-01  5.4936216268703709e-04  2.9775284660773960e-01  3.3747997745776264e-03  3.8083402865152355e-02  3.9040396163663266e-01  3.7083398860277134e-01  2.1263610227439877e-01  0.0000000000000000e+00  2.1780158454187830e-04  1.2918434205593179e-01  1.1434776666820773e-01  1.0174322235429437e-01  3.8215133561974918e-01  2.0850689125870941e-01  2.8470884780461442e-01  7.5082858284557802e-05  2.5551104261788311e-04  1.2156463266530908e-01  1.1776931254117895e-01  7.3817928833623481e-02  6.1372377849466024e-02  2.3846454676866901e-03  2.6821836813234697e-03  3.1497883667735700e-03  5.9117385057952110e-03  1.1249100702906271e-03  4.8688420480002770e-01  7.8479943244834849e-01  4.2604733990988880e-02  4.4379489746760405e-02  9.9847557571552405e-04  1.6684745407071617e-02  1.9366078968298835e-03  3.1850839957291141e-02  4.0648627897742762e-03  7.4109122138243137e-03  1.2989481071301384e-02  1.6064090204970213e-01  1.5101520693544074e-01  7.0517959574280783e-03  3.6890724488456247e-02  2.9749868919889364e-04  1.1619490199553302e-02  1.7529856558526669e-01  8.1680920158712222e-01  7.7155972372775952e-02  1.2717076693070495e-01  6.0551809851653671e-01  3.0898617917258042e-01  5.1647591907595940e-04  8.1542474656983255e-01  1.0318585254572214e-01  1.5884537870886231e-01  4.7872082961789179e-02  1.0842712713631481e-02  1.0632376637922270e-04  8.3054968742046709e-02  2.6428209564867297e-04  8.8467913875693374e-05  2.1162418746642321e-04  2.2043895324253054e-01  3.3306302949934385e-01  2.9978147033727326e-01  7.6831202038687740e-01  7.9660543747248902e-01  7.7539450281878020e-01  8.7546994669443393e-02  1.2193926901987252e-01  4.2632172083430933e-03  1.5443353274716748e-01  1.9388914079938307e-04  4.2392319648708647e-02  3.6269724262547687e-01  3.8344865921847498e-03  1.0819465010939406e-02  3.4939957720552493e-02  3.5574428383408213e-01  5.0435663671823583e-01  5.3086622605772615e-01  1.0459026780304797e-03  2.4033078983751680e-03  5.7985808248995363e-01  2.7760048624510042e-01  0.0000000000000000e+00  1.4836081293982463e-02  4.1488679103669344e-02  5.1195312646062852e-01  1.4098519236483573e-01  4.8337721231510414e-04  4.5353112689085928e-01  2.4118714672183810e-04  8.2648455015613755e-05  4.0505224225091713e-05  6.1344521708135547e-01  2.2789638608312707e-01  0.0000000000000000e+00  3.6357097820376327e-02  7.7600529051509071e-01  2.0141996479965169e-01  8.4478194469335588e-01  4.2339193314971157e-01  2.4872286544721519e-04  1.2174315574163614e-02  0.0000000000000000e+00  3.3884242912143252e-02  7.4701854035865933e-01  5.8622607909167282e-03  4.1868992015775630e-01  4.3135015781947378e-01  4.9001491721253704e-02  6.2601900828449279e-04  6.5796953584959256e-04  1.4414314539255524e-01  3.9882491543593207e-04  5.9309752268334962e-04  0.0000000000000000e+00  2.4949112738198873e-01  5.3030061125831072e-04  5.5051149973035085e-01  7.4149974070358957e-04  1.4330348915698929e-01  1.0431323538162546e-01  1.1434542603665655e-01  4.1924396493780575e-03  5.5530826582562531e-01  6.5885008134676126e-02  0.0000000000000000e+00  1.4633347332729305e-01  1.2507799367569323e-03  2.1680295301146199e-03  1.3612822756810348e-03  6.5769099552302890e-01  5.7083923843803890e-02  1.0303789500511379e-01  1.0145210956588736e-03  9.0801146382696818e-02  7.4541434179144425e-02  1.5024582216544771e-01  1.3965750173580904e-01  1.0595484162010201e-01  1.8535246294907548e-01  2.0434988877063263e-03  0.0000000000000000e+00  1.0747260403643422e-02  1.7252785173614307e-01  1.3255385803686732e-04  1.9479641196827366e-01  2.8244156489231187e-01  1.8920205039517992e-02  6.2952700536273243e-03  2.1163280056485674e-04  1.6501403057885482e-03  7.1957489539553610e-04  1.4956074731146457e-01  8.2145824606499659e-03  5.4078136097185821e-03  5.7849433011474306e-03  7.9625211401478135e-01  1.0395245002452758e-01  6.6369407342041969e-02  4.1900180943115949e-02  5.3652458340741831e-02  5.6010202107995332e-03  1.0394198200898383e-04  3.4580862937480733e-01  6.1112285472862404e-02  4.3142433929480944e-01  1.1185602174937698e-01  1.0027987895856755e-01  1.1567881900902763e-04  2.1621303706341372e-02  3.0441838865498927e-01  5.0700363905202911e-02  1.0185273083681744e-01  5.1595954070199102e-01  2.9816022697232370e-04  1.0558326875600470e-01  5.1657400878449937e-02  1.1578363766198392e-01  4.5512460782310880e-02  2.3297454576752114e-01  5.1060727760205489e-04  1.4707454714213053e-02  1.6051480405325397e-01  2.4693344306855886e-01  1.9709490431881185e-01  0.0000000000000000e+00  0.0000000000000000e+00  0.0000000000000000e+00  0.0000000000000000e+00  0.0000000000000000e+00  0.0000000000000000e+00  0.0000000000000000e+00  0.0000000000000000e+00  0.0000000000000000e+00  0.0000000000000000e+00  0.0000000000000000e+00  5.2624972595347028e-02  2.2546710694878500e-01  1.1421482912782607e-01  1.4294868849120629e-01  1.8954483270868347e-01  2.0888058518840354e-02  1.5875374823778226e-04  4.2588249589508603e-01  2.3171033360199950e-02  1.5413083843002361e-04  8.5333629711860392e-05  2.9727287177302737e-04  1.1859522703945132e-02  2.4610359404252391e-01  3.0098390272893698e-03  1.7262451326688051e-03  2.3968941188957032e-04  8.1758279585184479e-01  9.1913703768736921e-02  4.5293287654973895e-04  1.3663378772154633e-01  1.8673547855180173e-03  1.0197126440254216e-03  0.0000000000000000e+00  2.7803795411763998e-01  8.5664301593131387e-01  5.7460488115653374e-01  2.8394233852005485e-02  2.4932559099814493e-03  3.4654729380976872e-04  3.2986827511580752e-01  1.1768059565918780e-01  3.6472648951125404e-02  5.2092117125565895e-01  2.0931317942720896e-02  1.7205486644832876e-04  6.9691568219195582e-03  1.0511704553837109e-03  7.6205214913380559e-02  1.1145815093707373e-03  3.6306207490208693e-02  2.6924601370465406e-04  1.0567108070787892e-01  1.9218343241521245e-03  1.2097597250537316e-03  1.8237872385852066e-01  4.2663733301799267e-01  4.9874231921448447e-03  6.5180763664215318e-04  4.0732708990904616e-04  5.1242103614936388e-04  2.8702989585064320e-01  4.5321426172156920e-01  5.4805516305513546e-01  3.0861854107954645e-01  2.2332109640894028e-02  3.7735551017697752e-02  1.5147639784574412e-02  3.5137099301884767e-01  4.3890789868650887e-01  5.9990402177277198e-02  4.7693791720091479e-02  2.6324513767454844e-01  2.7471201884610630e-01  3.7023235568475971e-01  8.3662563667858569e-02  2.2002462263028519e-01  1.6417005663476483e-01  9.9184842948944613e-03  5.2912183627755786e-04  6.5785777258942846e-01  5.4920453274169466e-02  7.4448620710383922e-04  3.3075012231801510e-03  7.7938766476868343e-02  2.5825172626663161e-04  1.5392320679479058e-04  1.0687493327546786e-01  5.9081883006355938e-02  2.4860495175334240e-02  2.9374459452849166e-01  7.5524953980505183e-02  4.2654310299431571e-02  3.2070416903089132e-03  2.6329698181796490e-02  0.0000000000000000e+00  5.5070697500257515e-01  7.0420543312723740e-03  1.2867408699666908e-02  3.8258494790594628e-04  1.1987467021693883e-01  1.5867554355455651e-01  1.8654297914430579e-01  6.1411689161268079e-01  6.3007013554929991e-04  6.9586270096221850e-04  3.1570634900655506e-04  2.1372548795917080e-04  9.9855485584023266e-05  2.8199500620805873e-01  3.0240363848616300e-04  2.3321342866809078e-02  3.8855725165775318e-02  6.0105400731213865e-01  5.9390437659418116e-01  4.3631647671589918e-01  3.1197195132608605e-02  2.3734770051058846e-01  1.2515179577955906e-03  2.6274199236989994e-04  2.2187568925049350e-04  7.6202344056897420e-01  3.3297820086858690e-04  1.1096378632218974e-01  3.1928025058762244e-02  3.6646496715644419e-02  7.2144161353872598e-05  2.3166198148633571e-01  3.1137351753540832e-01  2.1200721541888218e-01  5.0636683099358759e-04  4.2316332401704730e-04  3.2110149475246291e-01  2.1570195022991986e-01  1.7403866870814749e-01  1.4843233962189945e-03  4.0619144098103584e-02  1.6923976215945105e-01  2.4451689394937584e-01  1.2169114956643827e-01  3.5345207811037241e-02  1.0385717581305818e-03  1.6318231598746007e-04  1.3760392128406990e-02  0.0000000000000000e+00  1.5462931522435138e-02  3.7565298937793007e-01  2.0716119905442368e-01  4.0100824786355624e-04  2.3585106277916087e-01  1.7476675679968520e-02  2.3571517040103920e-02  7.3199310924245184e-02  2.2812458818593038e-02  5.0091985608674193e-02  0.0000000000000000e+00  7.9015665343700077e-04  2.0147588195944277e-04  7.1146879989610436e-05  8.5735371387053662e-04  1.1073884507952059e-01  2.9980299902439078e