<?xml version="1.0"?>
<VTKFile type="UnstructuredGrid"  version="0.1"  >
<UnstructuredGrid>
<Piece  NumberOfPoints="4837" NumberOfCells="9229">
<Points>
<DataArray  type="Float64"  NumberOfComponents="3"  format="ascii">0 3 0  0 0 0  2 0 0  2 3 0  1.597838493125516 1.050883554685305 0  1.6 1 0  1.597838493125516 0.9491164453146942 0  1.591369546208625 0.8985995078068902 0  1.580639768160099 0.848813163168925 0  1.56572646727665 0.8001161231547654 0  1.546737094232881 0.7528592510536043 0  1.523808467896713 0.7073830337118194 0  1.497105789546305 0.6640151283174425 0  1.466821452591064 0.6230680016226147 0  1.433173656372715 0.5848366786134722 0  1.396404834034049 0.5495966168483652 0  1.356779905782572 0.5176017217798359 0  1.314584370134339 0.4890825173600131 0  1.270122246890604 0.464244485110259 0  1.223713886668185 0.4432665836220944 0  1.17569366276593 0.4262999591564494 0  1.126407561997436 0.4134668566313884 0  1.076210691848127 0.4048597388446739 0  1.025464721917689 0.4005406202771911 0  0.9745352780823109 0.4005406202771912 0  0.9237893081518724 0.404859738844674 0  0.8735924380025644 0.4134668566313883 0  0.8243063372340698 0.4262999591564495 0  0.7762861133318147 0.4432665836220945 0  0.7298777531093958 0.464244485110259 0  0.6854156298656606 0.4890825173600134 0  0.6432200942174282 0.5176017217798357 0  0.6035951659659511 0.5495966168483655 0  0.5668263436272852 0.5848366786134724 0  0.5331785474089363 0.6230680016226147 0  0.5028942104536946 0.6640151283174431 0  0.476191532103287 0.7073830337118194 0  0.4532629057671186 0.7528592510536045 0  0.4342735327233495 0.8001161231547655 0  0.4193602318399007 0.8488131631689249 0  0.408630453791375 0.8985995078068907 0  0.4021615068744842 0.9491164453146947 0  0.4 1 0  0.4021615068744842 1.050883554685306 0  0.408630453791375 1.10140049219311 0  0.4193602318399007 1.151186836831075 0  0.4342735327233495 1.199883876845234 0  0.4532629057671187 1.247140748946396 0  0.4761915321032872 1.292616966288181 0  0.5028942104536948 1.335984871682557 0  0.5331785474089362 1.376931998377385 0  0.5668263436272853 1.415163321386528 0  0.6035951659659513 1.450403383151635 0  0.643220094217428 1.482398278220164 0  0.6854156298656611 1.510917482639987 0  0.6977345728042366 1.517799257050847 0  0.9749999999999999 2 0  0.98125 2.0109375 0  0.9874999999999999 2.01875 0  0.9937499999999999 2.0234375 0  0.9999999999999999 2.025 0  1.00625 2.0234375 0  1.0125 2.01875 0  1.01875 2.0109375 0  1.025 2 0  1.302265427195763 1.517799257050846 0  1.314584370134339 1.510917482639987 0  1.356779905782572 1.482398278220164 0  1.396404834034049 1.450403383151635 0  1.433173656372715 1.415163321386528 0  1.466821452591064 1.376931998377385 0  1.497105789546305 1.335984871682557 0  1.523808467896713 1.292616966288181 0  1.546737094232881 1.247140748946395 0  1.56572646727665 1.199883876845234 0  1.580639768160099 1.151186836831075 0  1.591369546208625 1.10140049219311 0  1 0 0  1 3 0  0 1.5 0  2 1.5 0  0 0.75 0  2 0.75 0  0 2.25 0  2 2.25 0  0.5 3 0  1.5 3 0  0.5602132755474453 2.418191149635037 0  1.343190799013927 2.466181482018559 0  1.549483616043209 1.980763897431486 0  0.3809459364278243 1.915920283859234 0  1.5 0 0  0.5 0 0  2 2.625 0  0 0.375 0  2 0.375 0  0 2.625 0  0.9533459812054039 2.415364848273569 0  0 1.875 0  2 1.875 0  2 1.125 0  0 1.125 0  0.75 2.731853048517823 0  1.656714391976593 2.312878808078543 0  1.644220894709552 2.671461192946069 0  1.686619625513603 1.657804019669932 0  1.25 3 0  1.11491451353222 2.69665071899572 0  1.655809095711783 0.3157410367485911 0  0.344744752563693 0.3138263367515906 0  0.3421430385027135 2.689642615329715 0  0.8363672864021182 1.758899628525423 0  0.6698958734488725 2.015027781870219 0  0.3134155830549046 2.223149705302429 0  1.293407032438377 2.158480407554252 0  0.2128115397155896 1.6875 0  1.163632713597882 1.758899628525423 0  0.2241473453169968 0.5728352835628608 0  1.790521607713811 0.5625 0  0.75 0 0  1.25 0 0  1.381887248962778 2.732796447706243 0  1.808738467922874 1.3125 0  0.1912615320771259 1.3125 0  1.43649326017109 1.743611283910743 0  1.806344942281468 2.0625 0  1.406212421557131 0.2425956311278327 0  0.5946770127131198 0.2421552141532827 0  0.2076353412432653 2.463794837676363 0  0.5664157190497388 1.738403971538749 0  0.75 3 0  1.75 3 0  1.75 0 0  0.25 0 0  0.25 3 0  0.8264972795496145 2.204663431673491 0  0 2.0625 0  1.802421875873062 2.497464292337405 0  2 2.8125 0  2 0.1875 0  0 0.1875 0  0 2.8125 0  0 0.9375 0  2 0.9375 0  0.3832571935079844 1.542801939315925 0  1.138563503303262 0.1918950855438203 0  0.8614364966967383 0.1918950855438203 0  1.331036135381034 1.939349077730722 0  0.2028931360273427 0.8282103296882554 0  1.797106863972657 0.8282103296882544 0  1.161708488854739 2.337666122029137 0  1.786549401650668 1.848298547981807 0  0.5360407646469947 2.195113366088085 0  0.5537726353239411 2.636336044025153 0  1.795974655939971 1.108180863673391 0  0.2036669065103447 1.101974441921628 0  2 1.6875 0  0.209757528876475 2.039328775077631 0  1.451654788592808 2.290754947179538 0  0.7565891609191937 2.390284367446416 0  1.797797026721821 2.803312702295762 0  0.9233312565518589 2.619649907868003 0  0.9578532076632886 2.810593439347607 0  0.1883102781551811 1.500788802557786 0  0 2.4375 0  2 2.0625 0  2 1.3125 0  2 0.5625 0  0 0.5625 0  0 1.3125 0  0 1.6875 0  2 2.4375 0  1.66278583934542 1.455129016697821 0  0.5826128527766262 2.826407944065216 0  1.838944105829864 0.28125 0  0.1954502380679141 0.1876836507572189 0  1.484903827593676 2.581728958457655 0  0.1594655215195147 2.71875 0  0.3953989816999668 0.4949917129251033 0  1.16809762886573 2.521041069893561 0  1.611342009485724 0.5001679597048198 0  1.006546661225795 2.239802301902452 0  1.541109174859129 2.822121758915762 0  0.3883736818182604 1.721565275217617 0  1.521074148566377 1.582702617862704 0  0.3924254053882515 2.506717923936747 0  1.564639275419069 0.1644165477534208 0  0.1785472541455397 1.863130215192763 0  1.850786581319294 1.59375 0  1.599537827359123 1.811422586521226 0  0.1814121884010865 0.395357114296031 0  0.4370764069769338 0.1641875034348182 0  1.569745172365346 2.157590388209126 0  1.83567859269564 2.3214104244365 0  0.375 2.868254647420279 0  0.7625431138229678 2.561247120342429 0  1.233382764806451 2.825647550589022 0  1.476409406668565 0.3971593908933756 0  1.629046565771472 2.484520935842288 0  0.4958759687819704 0.3692339272238559 0  0.4088552783650793 2.083091320069451 0  1.375 3 0  0.4385053834876525 2.318530761241582 0  0.1529327551484826 2.192509964682768 0  1.140111215972369 2.114432722777893 0  1.875 0 0  0.125 3 0  1.094316356798941 1.879449814262712 0  1.419907693269692 2.067406537941062 0  1.671545319047149 0.661413974418508 0  1.795757257437923 2.650322686151896 0  0.9056836432010591 1.879449814262712 0  0.8243891479681483 2.046925666144447 0  0.5466953370053591 1.903447991149497 0  0.694651424080951 1.837426450948274 0  1.292024092130825 2.609723489860776 0  0.3101932685247719 1.408531676032694 0  1.727829775160294 0.1617003344190281 0  0.117355107261954 2.34375 0  0.2263721965917365 2.852409257643875 0  0.6794485280500303 2.255257061214455 0  1.308147460518168 2.323270414403184 0  1.487341430185175 2.43406376089661 0  1.715369042073597 2.178031545058025 0  0.3032352762938246 0.7079895586534565 0  1.125 3 0  1.285347656078639 0.1488309468940469 0  1.266068030501022 0.2984638423750997 0  0.7151534627962628 0.1485399392755376 0  0.7508507639106934 0.2948389866051373 0  0.1079891996099282 0.65625 0  1.860330777974778 0.4297255431237167 0  1.863336924425304 1.448105479394899 0  1.875 3 0  0.8180504516683963 2.865926524258911 0  1.8617659311459 0.6936710777884372 0  1.745603874577256 0.967989606607634 0  0.2918421769789035 1.212798512017414 0  1.232949070396823 1.638349442788135 0  0.7670509296031773 1.638349442788135 0  0.9999999999999999 0.2517611325473436 0  0.4689745544413941 2.74642668736376 0  1.094746523653261 2.834070536477032 0  1.625 3 0  0.2562448453911816 0.9649426853302923 0  1.867131965304962 0.1406620231300255 0  1.30267026437951 1.797789151022244 0  0.3222056706885635 2.389788533991055 0  1.696037432215755 1.964678693267606 0  0.125 0 0  0.09763711507520524 0.28125 0  1.668870888398169 1.315364509771505 0  0.5365971405170515 2.038403560306159 0  1.903172471140734 2.15625 0  1.882542428309909 1.947442735279257 0  0.5308037462841958 1.588196105664819 0  1.904369233961437 1.21875 0  0.09563076603856296 1.21875 0  1.361874132969389 2.865971140409619 0  1.86718607996975 1.733268166921682 0  0.0958023345505087 1.96875 0  0.09454949537750991 1.40625 0  1.878396241736494 0.9994220003659799 0  0.1064057698577948 1.606499952104979 0  1.050068984785826 2.581154311793384 0  0.628030716349791 0.3700342518330824 0  0.2794110186780552 2.574025670205163 0  0 2.53125 0  0.1327606015155395 2.581676469000805 0  1.480282742682851 1.86824116531354 0  1.393048854746275 1.618090827814527 0  1.673532557287274 2.868389715732805 0  0 1.03125 0  0.1245718131822568 0.984375 0  0.625 0 0  1.375 0 0  1.902646993267143 2.725406163746313 0  1.442914006521455 0.1173575048838538 0  0.5586844556441232 0.1166416068496915 0  1.194327540490709 1.981912883979955 0  1.730539441552785 0.4462239184476555 0  0.2835326185269737 1.792454686169034 0  0.9721721663608515 0.1258805662736718 0  0.875 0 0  0.1064057698577948 1.757898417372901 0  0.875 3 0  0.375 0 0  1.625 0 0  0.625 3 0  1.125 0 0  0.375 3 0  0.3107687663206955 0.1194314810558469 0  1.534107826474354 0.2859372968839883 0  0.6690141393883628 2.478919309932632 0  1.502494688365096 2.704383086585104 0  0 0.46875 0  0.119840274843062 0.5040672873200406 0  0.9334361784109418 2.13556551874056 0  0.7868646420739644 1.925242369741416 0  0.7272948539912094 2.127106280796393 0  0.8648760593336877 2.325092340302704 0  1.700831008477602 1.192391658035588 0  1.550007673240419 1.70059549730042 0  0.6458335898655799 1.627845867688914 0  0.693477043518877 2.88700454680377 0  0.4697744107378618 1.810556888351678 0  
[...]
<PointData  Scalars="f_370"> 
<DataArray  type="Float64"  Name="f_370"  format="ascii">0.0000000000000000e+00  0.0000000000000000e+00  0.0000000000000000e+00  0.0000000000000000e+00  9.9999999999999989e-01  1.0000000000000000e+00  1.0000000000000000e+00  1.0000000000000000e+00  1.0000000000000000e+00  1.0000000000000000e+00  1.0000000000000000e+00  1.0000000000000000e+00  1.0000000000000000e+00  1.0000000000000000e+00  1.0000000000000000e+00  1.0000000000000000e+00  1.0000000000000000e+00  1.0000000000000000e+00  9.9999999999999989e-01  1.0000000000000000e+00  1.0000000000000000e+00  9.9999999999999989e-01  1.0000000000000000e+00  1.0000000000000000e+00  1.0000000000000000e+00  9.9999999999999989e-01  9.9999999999999989e-01  1.0000000000000000e+00  1.0000000000000000e+00  1.0000000000000000e+00  1.0000000000000000e+00  1.0000000000000000e+00  1.0000000000000000e+00  1.0000000000000000e+00  9.9999999999999989e-01  1.0000000000000000e+00  1.0000000000000000e+00  1.0000000000000000e+00  1.0000000000000000e+00  1.0000000000000000e+00  1.0000000000000000e+00  1.0000000000000000e+00  1.0000000000000000e+00  9.9999999999999989e-01  1.0000000000000000e+00  1.0000000000000000e+00  1.0000000000000000e+00  1.0000000000000000e+00  1.0000000000000000e+00  9.9999999999999989e-01  1.0000000000000000e+00  1.0000000000000000e+00  1.0000000000000000e+00  1.0000000000000000e+00  1.0000000000000000e+00  1.0000000000000000e+00  1.0000000000000000e+00  1.0000000000000000e+00  1.0000000000000000e+00  1.0000000000000000e+00  1.0000000000000000e+00  1.0000000000000000e+00  1.0000000000000000e+00  1.0000000000000000e+00  1.0000000000000000e+00  1.0000000000000000e+00  1.0000000000000000e+00  1.0000000000000000e+00  1.0000000000000000e+00  1.0000000000000000e+00  1.0000000000000000e+00  1.0000000000000000e+00  1.0000000000000000e+00  1.0000000000000000e+00  1.0000000000000000e+00  1.0000000000000000e+00  1.0000000000000000e+00  0.0000000000000000e+00  0.0000000000000000e+00  0.0000000000000000e+00  0.0000000000000000e+00  0.0000000000000000e+00  0.0000000000000000e+00  0.0000000000000000e+00  0.0000000000000000e+00  0.0000000000000000e+00  0.0000000000000000e+00  2.6556187273675752e-01  2.7218991761120093e-01  4.3682110179372791e-01  4.0107335386298359e-01  0.0000000000000000e+00  0.0000000000000000e+00  0.0000000000000000e+00  0.0000000000000000e+00  0.0000000000000000e+00  0.0000000000000000e+00  3.7232937661050342e-01  0.0000000000000000e+00  0.0000000000000000e+00  0.0000000000000000e+00  0.0000000000000000e+00  1.3711113428441624e-01  2.0632521332757936e-01  9.3184618744066749e-02  4.4111364246474649e-01  0.0000000000000000e+00  1.6839756403186229e-01  3.1722208010652525e-01  3.1579011729831341e-01  8.4584117921974941e-02  1.0000000000000000e+00  6.1554795502458481e-01  2.1906111912258416e-01  5.2340819267288896e-01  2.9256772803947018e-01  1.0000000000000000e+00  3.6821176922386245e-01  3.3786757121801109e-01  0.0000000000000000e+00  0.0000000000000000e+00  1.2029770743373330e-01  3.8364442967726353e-01  3.8364430352774048e-01  6.9976265592254971e-01  1.7165931109893820e-01  4.1262342576848354e-01  4.1241000740013339e-01  9.4768848821346743e-02  7.0659053633896529e-01  0.0000000000000000e+00  0.0000000000000000e+00  0.0000000000000000e+00  0.0000000000000000e+00  0.0000000000000000e+00  5.4857763033710449e-01  0.0000000000000000e+00  8.3909246365470230e-02  0.0000000000000000e+00  0.0000000000000000e+00  0.0000000000000000e+00  0.0000000000000000e+00  0.0000000000000000e+00  0.0000000000000000e+00  6.0547518993518623e-01  4.2575975342531408e-01  4.2576561993887774e-01  6.7454873514983249e-01  4.4298272920649456e-01  4.4298153508959065e-01  4.2233884679707101e-01  2.4564015638321807e-01  3.8283333010331527e-01  1.5368210311296734e-01  4.6506665186086743e-01  4.6517559491741933e-01  0.0000000000000000e+00  1.9154903504196441e-01  3.3283375481979049e-01  3.5522903277949114e-01  3.1812092786962246e-02  2.1879938752834041e-01  1.0415032556695253e-01  3.1581689708013022e-01  0.0000000000000000e+00  0.0000000000000000e+00  0.0000000000000000e+00  0.0000000000000000e+00  0.0000000000000000e+00  0.0000000000000000e+00  0.0000000000000000e+00  0.0000000000000000e+00  5.8934992250262175e-01  7.3599500517030111e-02  1.3171371074112317e-01  1.0671316514997196e-01  1.6881056005342679e-01  3.6418035684923661e-02  5.7530140513566186e-01  2.7662048966426928e-01  5.7103217815335572e-01  5.5191920706080899e-01  6.2005806972964060e-02  5.0616240450789607e-01  7.1149184887744410e-01  1.5921560377785277e-01  2.0710310532585788e-01  2.0235188277216046e-01  2.2748703153226713e-01  4.7334955240413257e-01  2.0812592981154515e-01  2.0760434593600460e-01  3.2906151229638780e-01  9.8657877441108127e-02  3.8165294274187737e-02  2.3837435972022242e-01  8.8621038342056896e-02  6.1135863532360124e-01  1.5879293478926162e-01  5.3675456714816872e-01  3.4821772928900102e-01  0.0000000000000000e+00  2.5788547075194779e-01  1.1304720399480181e-01  6.7360528240285877e-01  0.0000000000000000e+00  0.0000000000000000e+00  1.0000000000000000e+00  4.9864901035292797e-01  6.2438761294509204e-01  5.8415998818133197e-02  1.0000000000000000e+00  7.2739481307558629e-01  5.7671948314164700e-01  7.7915546584104245e-01  1.9929105719177154e-01  5.7035613154680553e-01  1.2797805532642803e-01  6.7888669510099503e-02  2.6521762275122540e-02  4.2765736602661930e-01  3.8187871748061603e-01  2.3787204969724876e-01  2.1356501419588306e-01  6.0744906283758970e-01  0.0000000000000000e+00  2.9196626130472991e-01  6.1434830589310163e-01  2.9153851533854858e-01  6.1691499656705673e-01  1.9746677685647610e-01  1.7355298109918660e-01  2.4181917293996832e-01  0.0000000000000000e+00  6.9908196446964554e-02  2.6494849644291074e-01  5.9630309245362012e-01  6.4085237742845091e-01  1.0000000000000000e+00  1.0000000000000000e+00  5.8937884331262691e-01  9.1059089456419023e-02  8.9955032127805076e-02  0.0000000000000000e+00  6.0069298289131512e-01  5.4351320166157881e-02  8.1116731203028736e-01  1.6867809691657967e-01  3.0348140034861670e-01  0.0000000000000000e+00  7.9774541030374860e-02  6.6965831162020206e-01  4.8093442812506759e-01  7.5619145261336215e-02  1.2075056782379409e-01  7.7352048915350735e-01  2.0391419087527007e-01  2.0391396641519308e-01  6.0477523109649219e-02  1.7442588620428648e-01  9.6003746270178297e-02  1.7406584831865687e-01  2.7770585048418939e-01  1.6027570367268401e-01  2.4577256897960612e-01  6.7665627424557828e-01  9.8007554965609797e-02  0.0000000000000000e+00  4.6290083917775629e-02  5.7105784253005965e-01  8.3916002278233581e-01  3.3528557878481205e-02  0.0000000000000000e+00  2.8430516107847054e-01  0.0000000000000000e+00  0.0000000000000000e+00  2.1773423089223760e-02  1.8616380371999716e-01  1.8550331143820520e-01  7.7854748322608380e-01  3.4993146078316806e-01  3.4581837098728146e-01  2.8564969915428745e-01  0.0000000000000000e+00  1.3613034654039896e-01  0.0000000000000000e+00  0.0000000000000000e+00  0.0000000000000000e+00  0.0000000000000000e+00  0.0000000000000000e+00  0.0000000000000000e+00  1.0778645069786431e-01  3.8786097575431011e-01  2.6802994170271888e-01  1.1253696560794424e-01  0.0000000000000000e+00  1.7335927029472215e-01  6.8540651553287468e-01  8.1111599187371974e-01  5.6578492434607197e-01  4.4065591609792659e-01  6.6740090942139030e-01  5.9430640955490244e-01  8.7469344068486832e-01  5.3788995456345003e-02  5.5173228825532938e-01  3.1366925128511747e-01  3.5546232239016279e-01  3.6910230690863899e-01  3.8615853650429792e-02  1.4039574017323003e-01  1.0285173056508988e-01  3.8812670413594658e-01  6.8181278507434417e-01  6.4577977171157630e-01  5.8647828685158687e-01  3.2348713608151486e-01  0.0000000000000000e+00  0.0000000000000000e+00  1.3818052489124541e-01  1.0298937672084924e-02  4.2843546757900425e-01  0.0000000000000000e+00  1.0162308838825513e-02  7.6503983087841942e-01  3.2450666007439782e-01  3.0118106550126944e-01  5.4317658244229616e-01  8.6676532203611056e-01  1.5165992371582013e-01  4.5360646859924808e-01  3.3683713010818273e-01  6.0536039260666796e-01  1.2890303772637693e-01  1.9712445340700890e-01  6.9037676644863588e-01  6.9367648137870230e-01  1.9516567230950160e-01  2.0004118153738734e-01  1.2801885612039843e-01  1.2609993173434123e-01  1.9268526125916510e-01  7.0004167721647681e-01  2.2568292659868092e-01  2.3144498653998966e-01  2.0798237561093652e-01  3.6347759391668948e-02  7.2963670328436980e-01  7.3077859007981139e-01  8.6340006577118522e-01  3.1362758738070373e-01  1.2081675405827973e-01  3.6879679190288289e-01  7.7477000350763414e-01  5.3468598423018411e-02  2.4662775388931463e-01  2.9807677055570736e-01  9.3951690662182591e-02  4.9184540169862850e-01  1.7499620365228236e-01  4.9486761355242041e-02  3.0100893551428198e-01  4.7995112724458838e-01  2.1570487802261701e-01  1.7188474640574661e-01  5.4263176938886770e-01  7.1684179692754368e-01  5.1575369153494914e-02  2.9039989185103160e-01  1.6704298087634012e-01  1.9072016457974056e-01  5.6178726538853398e-02  7.0663914311514830e-01  2.8444923200876704e-01  3.0747406241623426e-01  0.0000000000000000e+00  4.4048353662670592e-01  2.7756977481345424e-01  4.8976869450977900e-02  4.4627852675872320e-01  7.0805754948517585e-01  2.2876282804228279e-01  4.2792473848579110e-01  2.2840182542759160e-01  5.1246094379801088e-01  0.0000000000000000e+00  5.9027030462893398e-02  1.5039845951085084e-02  3.8986238909596721e-01  3.3873484918697966e-01  8.3119329412336562e-01  7.6102031296368622e-01  5.1564155789223895e-02  7.3864203286146091e-01  4.7915577625995381e-01  6.5016678306656278e-02  2.0905606076299704e-01  4.4010722079876663e-01  4.6180287696417588e-01  2.2314661228056118e-01  2.4497297416166916e-01  1.9041017097328494e-01  7.4066965649660199e-01  4.7494494036590140e-01  4.8328040754360041e-01  2.6271646854635379e-02  3.8213800316494351e-02  4.1808487914721698e-01  6.6278265379275791e-01  7.8066696948070602e-01  5.8029212109608749e-02  6.2222235524852698e-01  1.6828895145039879e-01  8.1937394028538035e-01  5.4905179926042685e-02  2.1900801941644479e-01  8.6439848002339476e-02  0.0000000000000000e+00  0.0000000000000000e+00  1.8465434875415587e-01  3.1366943317434039e-02  6.6927664244564727e-02  6.8983489258827491e-01  0.0000000000000000e+00  3.5238394826852226e-01  4.6808561226939449e-01  1.3093060052699038e-01  1.3166103364769738e-01  3.4761760105541734e-01  1.5825550326808696e-01  3.0369971379245825e-01  4.5678834847428551e-01  6.4761753134473798e-02  6.2073477448253568e-02  7.8494624573174632e-02  1.3208444247182613e-01  1.9460208470314383e-01  0.0000000000000000e+00  0.0000000000000000e+00  0.0000000000000000e+00  0.0000000000000000e+00  0.0000000000000000e+00  0.0000000000000000e+00  0.0000000000000000e+00  0.0000000000000000e+00  0.0000000000000000e+00  0.0000000000000000e+00  0.0000000000000000e+00  0.0000000000000000e+00  0.0000000000000000e+00  0.0000000000000000e+00  0.0000000000000000e+00  0.0000000000000000e+00  0.0000000000000000e+00  0.0000000000000000e+00  0.0000000000000000e+00  0.0000000000000000e+00  0.0000000000000000e+00  2.1833397428694454e-01  4.4287770506780882e-01  5.6500950817590719e-02  9.2094172965711610e-02  8.7164932575840315e-01  2.0260779230914872e-01  2.3382867316454242e-01  1.6044384612313956e-01  1.5813377599969803e-02  2.3792666820701986e-02  2.6931638566390315e-01  5.3636511473664994e-01  3.6551831654868333e-02  2.2217808923842752e-01  3.0856915215575537e-01  9.9501847097032817e-02  6.6187545751285748e-01  8.5623660819165504e-01  5.7436699023263216e-01  2.2276952964902973e-02  1.9093257799955240e-02  2.5133952490036743e-01  4.0051524642374853e-01  5.8586555997779975e-02  7.1108743985596623e-01  1.0165801214842186e-02  1.0164196246507851e-01  1.8790819834213468e-01  2.4293803969463496e-01  6.1563948934685475e-01  4.1343843681938469e-01  7.1695314190487913e-01  4.6036283966773356e-01  7.6372507165508696e-01  3.0960963610718456e-01  8.8728739183620120e-02  5.8454421826284952e-01  4.2654587629036134e-01  1.2589900017500941e-01  3.1548224529840840e-01  1.1964940122539656e-01  1.2119161952909900e-01  9.2542696176855066e-02  1.1639429386114480e-01  2.5927869588751773e-01  4.1882269847484555e-01  4.4132604348010931e-02  1.1412140085693548e-01  1.2350267540861491e-01  1.1525992213025416e-01  9.9999999999999989e-01  2.3976651544396399e-01  1.8303445144431471e-01  1.2044974088744508e-01  1.2059028367134143e-01  1.0000000000000000e+00  8.8071100128682156e-01  3.5593927250964419e-01  3.9653700423199478e-01  1.8265354160633721e-01  4.1670626960171631e-01  2.5071946257126293e-01  2.9443997156957841e-01  7.7618776021134162e-01  2.1756524882356032e-01  8.1742424004177061e-01  7.7997890490532662e-01  5.1106827854325709e-01  6.3605346128041362e-02  3.7124972968565906e-01  1.0460991851037023e-01  1.8070265030843952e-01  1.8327019714798679e-01  1.1509116048389392e-01  5.7544576887469834e-01  6.3647081102453573e-01  1.0081127655180819e-01  5.8619016833989768e-01  2.3262177497934156e-01  6.5573339627620644e-02  4.8457867523480233e-02  7.8144080372226177e-01  3.3926173756780409e-01  5.6032138483756466e-01  5.5364655760465598e-01  1.2037663076656889e-01  2.0710705952432226e-01  2.6948336724926580e-01  6.9386044772452460e-01  5.0782067776427645e-02  1.4839792090325488e-01  3.0589497692094775e-01  2.6268050603262133e-01  9.2658624030194592e-02  2.5637355311694165e-01  1.1418684585164435e-01  4.4591894282161565e-01  7.5684771559851283e-01  6.7644492386017430e-01  5.4923567052930511e-01  1.1863647824666620e-01  7.7249280665897413e-01  9.1693216611753847e-01  3.8635556379575442e-01  4.9684605878529242e-01  4.0409146086336423e-01  7.9930537543505131e-01  2.9374205097542527e-01  2.9116452967156298e-01  4.4602736156714268e-01  1.2219171360163072e-01  7.5939605010630096e-01  5.7159410133298116e-01  2.2661046596001327e-01  7.7340244825631976e-01  3.7571682912759968e-01  2.8488623767677440e-01  0.0000000000000000e+00  6.5294198872738829e-01  6.2398927518744007e-01  3.1646381828186310e-01  2.4286016096692442e-01  6.4763839819573821e-01  4.5928934976900870e-01  5.3019419876242047e-01  1.4618453269875023e-01  3.3282512190685495e-02  1.6617094328840049e-01  1.5300918766280242e-01  0.0000000000000000e+00  1.7407385562324022e-02  0.0000000000000000e+00  0.0000000000000000e+00  5.1706695471571262e-01  5.8255563956571776e-01  8.8289785333580995e-01  4.1463225898706307e-01  4.3366234509578122e-01  5.0398174620679348e-01  4.0850659100400982e-01  7.9249499709588139e-02  5.0818303489262617e-01  3.8778321494011647e-01  7.9322188784206960e-01  4.7515816444554576e-01  3.6181373531508587e-01  7.8466133197324672e-01  7.1945227302509607e-01  1.3871122030599828e-01  1.2577228692621973e-02  7.0494584965813667e-01  7.5990909762003150e-02  7.9473829309990390e-02  4.2780375073988422e-02  6.1257288829998957e-01  4.7923712631061641e-02  1.3344005890224131e-01  4.4351623076479019e-01  3.9962419500633584e-01  0.0000000000000000e+00  1.5639038287069400e-02  2.2403100758057536e-02  1.8437672127144672e-01  4.7061809575424031e-02  7.9117589886431228e-01  4.5547421147346462e-01  7.9545162938734482e-01  3.8857327471812066e-02  8.9348561401675450e-02  1.7459440661920883e-01  7.6673965246102940e-02  2.6848809558892106e-01  1.3970478136667774e-01  3.6753613795491907e-01  7.8381463172144106e-01  5.3155085114616019e-01  4.9592701514725285e-01  3.7511325192864764e-01  9.8998284324927535e-02  3.6105278759801740e-02  7.8613670525023860e-01  9.9999999999999989e-01  6.2968784751140283e-01  4.9929911618311490e-01  6.8209961805140706e-01  2.3205042760769215e-01  8.4518337544998198e-02  3.2445525904916916e-01  4.1333039247357717e-01  3.0389997331118451e-02  2.7950593775764360e-01  7.4643422445991384e-02  8.3140041012341370e-01  4.8242681835963658e-01  5.3656886649985125e-01  8.4652161150286370e-02  2.9809330864009664e-01  3.2397423673582104e-01  1.0634738585280315e-01  2.6344871048892449e-01  5.8106016761105483e-01  2.7312861445822317e-01  3.2659374899138234e-02  3.8415395752281624e-02  9.1599524113421682e-01  7.3138960851347168e-01  8.9797029593735189e-01  4.3911847924832992e-01  1.9332511603372221e-01  3.6525495470620083e-02  8.8367234649454418e-01  6.9826325605838546e-01  8.0872435517663613e-02  8.0308833128981139e-01  1.2097778497951589e-01  3.1588084791410148e-01  7.6759131324864494e-01  4.0660935138293608e-01  7.9168088884974197e-01  8.2352727299905903e-01  2.9005000247672021e-02  3.1903633356413365e-02  4.4029371765537867e-01  9.0829924542350371e-01  3.3198708700174684e-01  1.6260451253707717e-01  5.4289035649800477e-01  6.2266960405012048e-02  7.6414546348800946e-02  1.2511578991941283e-01  8.2771791268280026e-01  2.2711629953572964e-02  3.4566296562965332e-01  4.4000366157115928e-01  1.9813370026420260e-01  3.6612125978021021e-01  4.8001490212649162e-01  4.2673229190057199e-02  2.0150879344238870e-02  1.7360427473976006e-01  5.0593778239976328e-01  6.4283813250164457e-01  1.4065202940172163e-02  1.5580617631753585e-01  2.2873182584216981e-01  1.4351488125376932e-01  2.1334418261033185e-02  3.8004359560005008e-01  1.0000000000000000e+00  1.0000000000000000e+00  1.0000000000000000e+00  1.0000000000000000e+00  1.0000000000000000e+00  8.9914089950241152e-02  7.9951390309694281e-02  2.4246638665333253e-01  2.3276766161683998e-01  1.3945793382813623e-01  1.7736575262883164e-01  5.5367015514348465e-02  5.1062533374826857e-01  8.5772094809481031e-02  2.1394751738702300e-01  2.4231497863473325e-01  3.9204911353362520e-01  1.8194705106715270e-01  3.8315528324347747e-01  3.4025321067294523e-01  1.1941495534238745e-01  1.5302589300059702e-01  7.1501489459184941e-01  2.1221100769648260e-01  1.3924446912299512e-01  2.1712188370386357e-01  8.0460165242689852e-01  6.0764736963559474e-01  7.5749532694074001e-02  8.8818834221058962e-02  1.2039799912413179e-01  3.1977740176170624e-02  0.0000000000000000e+00  0.0000000000000000e+00  0.0000000000000000e+00  3.4954480692671666e-02  5.3554011514740496e-01  4.1890226277069648e-01  8.1969492434522362e-01  6.2076487293092830e-01  1.1822402219255840e-01  4.1781379363433430e-02  3.5722125281286127e-02  4.3234190646225845e-01  1.9055297444010752e-01  2.1103120161897443e-01  3.0061850206635571e-02  7.9741913156675392e-02  9.0078707955977805e-02  2.0243178249862812e-02  8.0880306225318263e-02  1.7437734469665225e-01  0.0000000000000000e+00  1.1253792559787203e-01  1.3469437918657190e-01  3.5391620349457936e-01  1.4148434701430831e-01  6.0973513017561695e-02  4.5295939050279975e-02  1.3753681841121015e-01  1.0936372818741050e-01  4.8409546900286655e-02  1.0431082917596173e-01  3.4740954347685821e-01  9.8695905425577504e-02  2.9960236161721604e-01  1.1993217906215670e-01  3.1336420407071891e-01  4.0586370244250776e-02  8.0473436586590730e-01  2.5431461483860890e-01  1.0231898520258904e-01  2.3367614066829845e-01  7.0324658887834166e-02  1.6049978785700469e-01  5.9602039951015173e-01  6.0782386230193108e-01  8.4444574304114589e-02  2.6095368766932597e-01  2.4891516569705521e-01  8.3259412008076197e-02  9.0696787705844162e-02  1.5907958269706027e-01  0.0000000000000000e+00  7.5575635701049138e-01  7.7549540092195590e-01  9.2716508152976251e-01  1.6078664735331188e-01  6.3559393886657961e-02  1.2738018230883746e-01  9.2286323145385013e-02  0.0000000000000000e+00  1.3301540491043823e-01  8.1968582879525920e-01  1.1072475359570461e-01  1.8305856943298528e-02  1.2727554962770096e-01  6.3730268999798301e-01  2.7224974301586308e-01  9.5479979054489766e-02  4.5166028659571772e-01  4.9912981812638163e-01  2.6783163062221445e-02  1.3307378112441326e-01  1.0036103776294909e-01  2.0881034569002557e-01  7.8018005811182023e-01  7.1639934474626199e-01  4.5934579837731027e-02  0.0000000000000000e+00  2.7549300059888850e-02  1.3754706755486820e-01  3.5659400996464911e-02  4.1620657363292579e-01  3.4611444471216711e-03  9.1097079603739461e-01  4.7067579258974968e-01  2.7950675258343038e-01  5.6947100191725986e-01  0.0000000000000000e+00  3.4118424007330153e-03  8.2104005150903892e-01  2.5098776782888960e-01  4.564045898221365